56
Lattice="0 0.0 0.0  0.0 0 0.0  0.0 0.0 0"	TIME: 0
W	7.543519	16.490708	27.636900	0.000000e+00	0.000000e+00	0.000000e+00	0.000000e+00	0.000000e+00	0.000000e+00
A	10.398080	17.818654	25.749865	0.000000e+00	0.000000e+00	0.000000e+00	0.000000e+00	0.000000e+00	0.000000e+00
A	11.613830	16.856890	22.370294	0.000000e+00	0.000000e+00	0.000000e+00	0.000000e+00	0.000000e+00	0.000000e+00
A	12.651529	17.187014	18.827831	0.000000e+00	0.000000e+00	0.000000e+00	0.000000e+00	0.000000e+00	0.000000e+00
A	10.558264	16.993605	15.622139	0.000000e+00	0.000000e+00	0.000000e+00	0.000000e+00	0.000000e+00	0.000000e+00
A	12.881772	17.117203	12.649626	0.000000e+00	0.000000e+00	0.000000e+00	0.000000e+00	0.000000e+00	0.000000e+00
A	9.173112	16.668880	11.699334	0.000000e+00	0.000000e+00	0.000000e+00	0.000000e+00	0.000000e+00	0.000000e+00
A	7.305788	15.881840	8.321387	0.000000e+00	0.000000e+00	0.000000e+00	0.000000e+00	0.000000e+00	0.000000e+00
A	8.684187	17.131512	5.060305	0.000000e+00	0.000000e+00	0.000000e+00	0.000000e+00	0.000000e+00	0.000000e+00
C	5.025904	16.754369	3.819731	0.000000e+00	0.000000e+00	0.000000e+00	0.000000e+00	0.000000e+00	0.000000e+00
C	8.131100	18.543313	2.941774	0.000000e+00	0.000000e+00	0.000000e+00	0.000000e+00	0.000000e+00	0.000000e+00
A	5.037762	20.181046	4.396254	0.000000e+00	0.000000e+00	0.000000e+00	0.000000e+00	0.000000e+00	0.000000e+00
A	6.916856	21.271231	7.639341	0.000000e+00	0.000000e+00	0.000000e+00	0.000000e+00	0.000000e+00	0.000000e+00
A	9.880763	21.324987	10.068093	0.000000e+00	0.000000e+00	0.000000e+00	0.000000e+00	0.000000e+00	0.000000e+00
A	9.027716	21.371132	13.780902	0.000000e+00	0.000000e+00	0.000000e+00	0.000000e+00	0.000000e+00	0.000000e+00
A	11.067419	22.129857	17.147083	0.000000e+00	0.000000e+00	0.000000e+00	0.000000e+00	0.000000e+00	0.000000e+00
A	8.799404	20.335744	19.495738	0.000000e+00	0.000000e+00	0.000000e+00	0.000000e+00	0.000000e+00	0.000000e+00
A	8.279077	21.843181	23.033469	0.000000e+00	0.000000e+00	0.000000e+00	0.000000e+00	0.000000e+00	0.000000e+00
A	6.497103	18.495379	23.020617	0.000000e+00	0.000000e+00	0.000000e+00	0.000000e+00	0.000000e+00	0.000000e+00
W	5.683117	14.946398	22.105903	0.000000e+00	0.000000e+00	0.000000e+00	0.000000e+00	0.000000e+00	0.000000e+00
W	4.223882	17.745763	24.286842	0.000000e+00	0.000000e+00	0.000000e+00	0.000000e+00	0.000000e+00	0.000000e+00
W	0.773137	18.867136	23.478409	0.000000e+00	0.000000e+00	0.000000e+00	0.000000e+00	0.000000e+00	0.000000e+00
P	-1.855717	16.727976	24.977640	0.000000e+00	0.000000e+00	0.000000e+00	0.000000e+00	0.000000e+00	0.000000e+00
P	-5.333819	15.964853	25.933324	0.000000e+00	0.000000e+00	0.000000e+00	0.000000e+00	0.000000e+00	0.000000e+00
P	-3.197779	16.483529	22.708785	0.000000e+00	0.000000e+00	0.000000e+00	0.000000e+00	0.000000e+00	0.000000e+00
P	-0.506152	15.204860	20.302215	0.000000e+00	0.000000e+00	0.000000e+00	0.000000e+00	0.000000e+00	0.000000e+00
P	-4.036213	16.432728	20.682714	0.000000e+00	0.000000e+00	0.000000e+00	0.000000e+00	0.000000e+00	0.000000e+00
P	-5.005578	13.286532	18.804223	0.000000e+00	0.000000e+00	0.000000e+00	0.000000e+00	0.000000e+00	0.000000e+00
P	-3.699732	16.169368	16.789460	0.000000e+00	0.000000e+00	0.000000e+00	0.000000e+00	0.000000e+00	0.000000e+00
P	-3.356792	12.503026	16.889842	0.000000e+00	0.000000e+00	0.000000e+00	0.000000e+00	0.000000e+00	0.000000e+00
P	-4.370767	8.885424	16.861268	0.000000e+00	0.000000e+00	0.000000e+00	0.000000e+00	0.000000e+00	0.000000e+00
P	-4.547664	11.610182	14.244986	0.000000e+00	0.000000e+00	0.000000e+00	0.000000e+00	0.000000e+00	0.000000e+00
P	-2.726650	14.349022	12.396735	0.000000e+00	0.000000e+00	0.000000e+00	0.000000e+00	0.000000e+00	0.000000e+00
P	-3.888309	10.887378	11.473301	0.000000e+00	0.000000e+00	0.000000e+00	0.000000e+00	0.000000e+00	0.000000e+00
P	-2.814785	7.438237	12.454450	0.000000e+00	0.000000e+00	0.000000e+00	0.000000e+00	0.000000e+00	0.000000e+00
P	-3.369713	10.201423	9.780360	0.000000e+00	0.000000e+00	0.000000e+00	0.000000e+00	0.000000e+00	0.000000e+00
W	-0.770199	12.462300	8.018099	0.000000e+00	0.000000e+00	0.000000e+00	0.000000e+00	0.000000e+00	0.000000e+00
W	1.265171	10.512984	10.682197	0.000000e+00	0.000000e+00	0.000000e+00	0.000000e+00	0.000000e+00	0.000000e+00
W	1.895619	6.891442	9.938322	0.000000e+00	0.000000e+00	0.000000e+00	0.000000e+00	0.000000e+00	0.000000e+00
W	5.196372	8.167198	8.726192	0.000000e+00	0.000000e+00	0.000000e+00	0.000000e+00	0.000000e+00	0.000000e+00
A	8.334067	8.431370	6.814987	0.000000e+00	0.000000e+00	0.000000e+00	0.000000e+00	0.000000e+00	0.000000e+00
A	11.553196	7.736127	8.585665	0.000000e+00	0.000000e+00	0.000000e+00	0.000000e+00	0.000000e+00	0.000000e+00
A	10.976961	7.638630	12.503947	0.000000e+00	0.000000e+00	0.000000e+00	0.000000e+00	0.000000e+00	0.000000e+00
A	9.704075	7.724771	16.104439	0.000000e+00	0.000000e+00	0.000000e+00	0.000000e+00	0.000000e+00	0.000000e+00
A	13.064108	8.209654	17.402153	0.000000e+00	0.000000e+00	0.000000e+00	0.000000e+00	0.000000e+00	0.000000e+00
A	16.003781	8.635348	19.713485	0.000000e+00	0.000000e+00	0.000000e+00	0.000000e+00	0.000000e+00	0.000000e+00
A	19.472624	10.223956	19.393623	0.000000e+00	0.000000e+00	0.000000e+00	0.000000e+00	0.000000e+00	0.000000e+00
C	22.602618	10.568719	21.615809	0.000000e+00	0.000000e+00	0.000000e+00	0.000000e+00	0.000000e+00	0.000000e+00
C	19.485095	12.113389	20.171030	0.000000e+00	0.000000e+00	0.000000e+00	0.000000e+00	0.000000e+00	0.000000e+00
A	16.350125	14.109666	19.211815	0.000000e+00	0.000000e+00	0.000000e+00	0.000000e+00	0.000000e+00	0.000000e+00
A	12.971305	12.480052	20.413049	0.000000e+00	0.000000e+00	0.000000e+00	0.000000e+00	0.000000e+00	0.000000e+00
A	10.329751	12.381915	17.597817	0.000000e+00	0.000000e+00	0.000000e+00	0.000000e+00	0.000000e+00	0.000000e+00
A	11.035702	12.562473	13.860579	0.000000e+00	0.000000e+00	0.000000e+00	0.000000e+00	0.000000e+00	0.000000e+00
A	11.420518	12.669959	9.865901	0.000000e+00	0.000000e+00	0.000000e+00	0.000000e+00	0.000000e+00	0.000000e+00
A	10.553073	12.520595	6.155424	0.000000e+00	0.000000e+00	0.000000e+00	0.000000e+00	0.000000e+00	0.000000e+00
W	7.128812	12.268170	4.403324	0.000000e+00	0.000000e+00	0.000000e+00	0.000000e+00	0.000000e+00	0.000000e+00
56
Lattice="0 0.0 0.0  0.0 0 0.0  0.0 0.0 0"	TIME: 2
W	8.222490	16.621737	27.288384	4.637617e-01	8.914355e-02	5.501027e-02	6.875339e-01	-5.074459e-01	-4.129877e-01
A	10.967042	18.582164	25.489119	8.647640e-02	9.889482e-01	-6.107645e-01	-1.437933e+00	-1.261823e+00	6.610187e+00
A	11.634185	17.381432	21.991307	3.265342e-01	3.616266e-01	-5.666387e-01	-5.468114e-01	-2.802028e+00	1.128385e+01
A	12.573213	16.982495	18.462973	1.880568e-02	8.437714e-02	-4.608214e-02	8.002328e+00	4.352974e+00	-1.233229e+01
A	10.915085	17.184124	15.041392	2.257459e-01	-8.445380e-01	-1.392172e-01	-1.502413e-01	4.794614e+00	-9.990471e-01
A	12.812135	16.866800	11.754374	-5.533858e-01	-1.710727e-01	-1.096780e+00	-1.279608e+01	4.632218e+00	-1.271351e+00
A	8.948939	17.320789	11.300512	6.056032e-01	-1.454610e-02	-2.035888e-01	-1.190027e+00	-9.707732e+00	-1.902772e+01
A	6.801737	16.175422	8.075386	-3.121021e-01	6.014428e-01	-4.115782e-01	1.192298e+01	7.286427e+00	2.786271e+01
A	9.489971	17.387073	5.736626	-1.453389e-01	9.386839e-01	1.108673e+00	-2.361795e+01	-1.050519e+00	-1.710396e+01
C	5.711855	17.584586	4.206760	2.638074e-01	-2.242431e-01	-3.993331e-01	9.938343e+00	-2.547060e+01	3.910561e+00
C	8.303858	19.921095	3.178029	-1.106507e-01	4.131980e-01	-5.290943e-02	1.721744e+01	1.050531e+01	-7.271616e+00
A	4.753969	20.170237	4.332703	6.055417e-01	-2.103015e-01	1.642093e-01	-3.152181e+00	1.323934e+00	3.084145e+00
A	7.009060	20.948034	7.323779	3.573179e-01	-5.060792e-01	1.315029e-01	1.062884e+01	1.935681e+01	2.015796e+01
A	9.997852	21.906694	9.687701	-5.689496e-01	9.418619e-02	-4.154030e-01	-9.176220e+00	-3.143019e+00	-4.904855e+00
A	9.071640	21.824012	13.385070	4.206199e-01	7.566173e-01	-6.934822e-01	4.240868e+00	-2.701495e+00	2.885384e+00
A	11.212207	21.638267	16.577267	-3.645997e-01	2.287052e-01	1.502275e-01	-2.326146e+00	2.219461e+00	-2.013712e+00
A	8.992791	20.017124	19.207682	-2.362462e-01	7.731170e-01	-9.628350e-01	-4.797519e+00	7.346179e+00	3.084370e+00
A	8.486914	21.560524	22.737045	-3.000209e-01	-2.116856e-02	1.632144e-01	7.274148e+00	5.397513e+00	-1.190618e+01
A	6.299270	18.669051	23.490413	-4.249393e-01	-4.615870e-01	2.184943e-01	7.295805e-01	1.106311e+01	1.629122e+00
W	5.592592	15.151734	23.028209	-3.891312e-01	7.773049e-01	6.764805e-01	4.704369e+00	-3.232564e+01	-9.199179e+00
W	3.875794	17.922597	24.582420	-3.427847e-01	3.885512e-01	5.215570e-01	-8.201650e-01	1.107904e+01	1.076694e+01
W	0.372073	19.015671	23.984902	-8.419390e-01	1.156101e-01	4.345581e-01	-2.811292e+01	-1.638031e+01	3.725038e+00
P	-2.477370	16.294869	24.931539	-2.900017e-01	-8.246165e-01	-1.596435e-01	2.637443e+01	1.670903e+01	-5.948818e+00
P	-6.120045	16.090471	25.685879	-7.333972e-01	3.296130e-01	3.406180e-01	-1.112412e+01	5.713372e-02	4.758182e+00
P	-3.810680	15.881066	22.766761	-1.871921e-01	9.843689e-02	4.488672e-01	2.078851e+00	6.080057e+00	8.176844e+00
P	-1.398819	14.839653	20.152170	-4.262108e-01	-5.994844e-04	-5.661424e-01	2.505147e+01	-7.064238e+00	2.057458e+01
P	-4.478626	16.979366	20.675481	2.653980e-01	-3.821755e-01	-2.519801e-01	-2.135201e+00	2.374533e+00	-4.786354e-01
P	-5.542870	13.753428	19.059501	-5.304376e-01	5.822049e-01	-4.106370e-01	2.041218e+00	-1.594409e+00	-1.346089e+01
P	-3.685333	16.404080	16.889285	-5.653904e-01	-8.992391e-02	2.994875e-01	-1.857451e+01	1.861114e+01	-1.352020e+01
P	-3.641063	12.772664	16.770966	-1.406945e-01	5.803963e-01	-7.463305e-01	-5.118754e+00	-2.177430e+01	2.359335e+00
P	-3.914602	8.957213	16.866805	6.563122e-01	1.257724e-01	-7.768910e-02	-1.222653e+00	1.241611e+01	-7.399584e+00
P	-4.215684	11.827944	14.219131	3.977072e-01	2.846300e-01	-3.182062e-01	-1.112656e+01	-2.645160e+01	2.320636e+01
P	-2.719875	14.586883	12.569788	3.807584e-01	-8.749630e-02	1.377595e-01	1.223126e+01	3.089452e+01	-1.765295e+01
P	-3.645567	11.006960	12.425636	-2.251682e-01	-5.990149e-02	8.960150e-01	-9.867750e+00	5.923897e+00	-7.048492e-01
P	-2.670523	7.537274	12.183297	1.850698e-01	1.008922e-02	-3.014185e-01	5.829292e+00	-1.807443e+01	-7.250491e-01
P	-4.047672	10.009960	9.651935	-4.371591e-01	-3.646972e-01	-3.352341e-02	-8.392771e+00	-4.946532e+00	3.992973e+00
W	-1.336414	12.209820	8.469397	-6.156293e-01	-1.977659e-01	7.141288e-01	1.485715e+00	1.345627e+01	-1.569601e+01
W	0.907716	10.644920	10.906634	-3.124615e-02	1.504895e-01	-4.470440e-01	1.138337e+01	-4.002087e+00	8.012051e+00
W	2.007403	7.154431	10.055851	-9.576976e-03	2.581246e-01	5.185733e-01	-1.021094e+01	-9.482509e+00	6.462204e+00
W	4.773652	8.722769	8.231115	-4.973123e-01	3.707707e-01	-7.148896e-01	-2.551409e+00	6.125585e+00	-2.880185e+00
A	8.102071	8.502618	6.694985	-3.646326e-01	-7.660994e-01	-4.114315e-01	1.541829e+01	-1.400929e+01	-3.866418e+00
A	11.727805	8.182399	7.837864	-5.517658e-02	-4.067270e-01	-5.115276e-01	-1.177012e+00	-1.799089e+00	3.075247e+01
A	11.697290	8.009593	11.950492	2.049711e-01	1.169149e-01	-2.147796e-01	-1.152093e+00	2.586245e+00	-3.027966e+01
A	10.459612	8.172633	15.562405	9.419843e-01	4.680850e-02	-9.974842e-01	2.536956e+01	5.506140e+00	1.286517e+01
A	13.913497	8.669809	17.698547	5.852710e-01	1.623047e-01	-3.602504e-01	-3.837825e+01	-8.457965e+00	-3.576056e+01
A	16.077327	8.683688	20.559796	3.065859e-01	-8.698252e-02	-5.610477e-03	-1.843893e+00	-1.247195e+01	2.088472e+01
A	19.276598	9.844134	18.890191	-7.290233e-01	-5.199732e-01	-5.236307e-03	-1.717767e+00	5.518026e-01	-2.574423e+00
C	22.187281	9.781515	21.278924	-3.944643e-01	-8.907056e-01	-4.574640e-01	1.277247e+01	-5.969219e+00	7.474245e+00
C	19.299735	11.469111	19.764556	-3.418794e-01	1.968573e-01	-5.902465e-01	1.291201e+01	1.189860e+01	-8.113969e+00
A	16.660405	14.045510	19.527016	1.779276e-01	4.058352e-01	-3.650164e-01	-1.147332e+01	5.839329e+00	5.331441e-01
A	13.196891	12.524832	20.118774	1.271204e-01	-3.834053e-01	6.768706e-01	-1.374817e+01	1.079235e+01	-1.202934e+01
A	10.567621	13.040410	17.132866	-3.505575e-01	9.566463e-01	2.327575e-01	1.394319e+01	-1.567608e+01	-3.347102e-02
A	10.979852	12.747902	13.211607	4.705785e-02	1.337404e-01	-2.577309e-01	-1.594206e+01	-7.897103e+00	-1.069282e+01
A	9.256163	12.011681	9.574628	-6.624225e-01	2.174680e-01	-6.536108e-01	8.152729e+00	7.763818e+00	4.795644e+01
A	10.664488	12.803387	6.349180	1.599867e-01	-7.659911e-01	8.908210e-01	-2.975141e+00	1.545710e+00	-1.935826e+01
W	6.914720	12.579887	5.298582	-3.201553e-01	4.137369e-01	8.376923e-01	6.466281e+00	6.531553e+00	-5.389956e+00
56
Lattice="0 0.0 0.0  0.0 0 0.0  0.0 0.0 0"	TIME: 4
W	10.174675	16.790588	27.690954	1.139689e+00	7.961403e-01	1.659196e-01	-2.927961e-01	6.072189e+00	-6.919942e+00
A	10.919559	19.553965	25.070098	-4.976077e-01	9.846986e-03	-1.424811e-01	-2.760108e+00	-4.490933e+00	9.596749e+00
A	11.725159	18.152954	21.679347	7.243099e-02	1.161467e+00	-1.513594e-01	-2.145292e+00	-1.638467e+00	-9.083782e-01
A	12.204093	18.045467	17.960062	2.343470e-01	-2.712872e-01	3.687524e-02	7.531262e+00	-1.191762e+00	-1.002223e+01
A	11.344305	17.422819	14.287876	-8.630339e-02	7.045292e-01	-1.790066e-01	-3.415551e+00	2.136304e+00	1.024556e+01
A	12.751922	16.753208	10.892861	-7.532494e-01	3.171603e-01	-1.161723e-02	-7.397175e+00	4.107646e-02	-4.371177e+00
A	8.934203	17.427694	10.849055	4.028559e-01	-5.370978e-01	-5.600060e-01	1.321923e+01	-1.836473e+00	3.882044e+00
A	6.118444	16.803078	8.502020	4.860902e-01	-7.930595e-02	1.478082e+00	-1.781969e+01	-6.411640e+00	1.212299e+01
A	8.756960	16.858237	6.031606	-6.247717e-01	-1.451759e+00	-5.972869e-01	9.015113e+00	1.974575e-02	-2.600851e+01
C	7.454688	15.925107	2.457294	8.960755e-01	-7.199036e-01	-5.706608e-01	8.624585e+00	3.351803e+01	9.401005e+00
C	8.073175	19.989303	2.151601	-1.455332e-01	-1.238173e-02	-6.448191e-01	-5.937137e+00	-3.174462e+01	2.927507e+00
A	5.219956	20.150295	4.677953	-1.815328e-02	8.330176e-01	8.228772e-01	-3.605830e+00	-3.595337e+00	-1.757838e+01
A	6.192487	22.159457	7.574410	-1.552477e-01	-5.253259e-01	-4.634312e-01	-2.401412e+01	-6.137437e-01	5.248122e+00
A	9.565673	22.671152	8.353379	-5.840586e-01	-1.189461e-02	3.622786e-01	3.026112e+01	9.959701e-01	2.112208e+01
A	9.825498	21.940878	12.208214	1.145371e+00	6.643293e-02	-1.582513e+00	4.108793e+00	4.258181e+00	-2.741201e+00
A	11.122486	22.888012	15.765721	1.108936e-01	5.136095e-01	-6.157093e-01	-6.028620e+00	-8.345928e+00	-5.601758e+00
A	8.894115	21.061642	18.323913	2.649253e-02	3.075575e-01	4.625756e-01	-3.858118e-01	6.314386e+00	-1.215171e+01
A	7.858237	21.587781	21.838945	-9.839668e-01	-5.511175e-01	-1.252004e+00	1.947258e-01	6.324322e+00	7.038717e+00
A	6.478338	18.322427	23.025784	9.247677e-02	-1.236057e+00	-3.780936e-01	-3.232543e+00	-1.141557e+01	4.525345e+00
W	4.160263	15.322104	23.826624	-7.249005e-02	1.276707e+00	2.268021e-02	-7.942822e+00	3.627120e+01	2.101647e+01
W	2.987550	18.538597	26.259361	2.023760e-01	3.138743e-01	1.095379e+00	3.225706e+01	-3.202478e+01	-1.644849e+01
W	-0.429414	18.751760	25.201076	-6.219569e-01	1.058526e-01	9.458061e-01	-5.154316e+00	1.863539e+01	-5.405809e+00
P	-2.673621	15.944087	25.170811	8.853018e-02	3.311753e-01	-7.081493e-02	-1.975567e+01	-1.337587e+01	3.702252e+00
P	-6.288412	17.050278	25.942777	6.796545e-01	5.289900e-01	-7.061050e-01	7.254737e+00	-2.548991e+00	-4.428055e+00
P	-3.695469	15.907247	23.382995	-1.890532e-01	-1.561868e-01	-2.188633e-02	5.082569e+00	-6.648582e+00	-8.451830e+00
P	-0.849740	14.512664	21.054711	-2.776903e-01	7.170075e-01	4.424503e-01	-1.150896e+01	8.356942e+00	5.637219e+00
P	-4.100857	16.470574	20.451173	6.400331e-01	-6.304279e-01	2.191972e-01	-1.923424e+01	-8.001854e+00	-2.204522e+00
P	-7.425617	14.725774	18.894526	-2.012077e-01	2.866005e-01	-6.041167e-02	2.162098e+01	8.703624e+00	1.247338e+01
P	-4.974761	16.784720	16.915321	-4.098511e-01	-5.030151e-01	2.549750e-01	4.859075e-01	1.446051e+01	-2.983503e+00
P	-3.897496	13.282412	17.216453	-5.876878e-01	9.070022e-01	2.636223e-01	4.741317e+00	-2.216645e+01	-3.504580e+00
P	-2.219657	9.830280	17.212307	1.699380e+00	-5.469853e-01	8.513510e-01	-1.609922e+01	1.736977e+01	-1.505549e+01
P	-4.577190	12.356675	15.152509	-2.422755e-01	9.025424e-01	5.629046e-01	2.574283e+01	-8.139059e+00	-3.989085e-02
P	-1.776806	14.349684	13.139238	-2.026980e-01	-3.691633e-01	1.535790e+00	-4.500074e+00	8.579565e+00	1.427195e+01
P	-3.703814	11.560085	11.927895	-2.450830e-01	2.474930e-01	-9.062213e-02	-8.124768e+00	-1.670807e+01	-3.725227e+00
P	-2.619566	7.914046	12.096094	2.668094e-01	5.517777e-01	-3.058990e-02	-1.500523e-01	7.286612e+00	-3.348161e+00
P	-4.195686	10.110162	9.336553	3.038035e-01	8.249288e-01	-4.201446e-01	-5.123326e+00	-7.462693e+00	1.188669e+01
W	-1.529742	11.934645	7.553079	1.950059e-01	-1.374262e-01	-1.856574e+00	1.015962e+01	5.546984e+00	-2.146803e+00
W	1.288600	11.083245	10.007126	8.088780e-01	-5.020446e-01	-3.457183e-01	-4.891507e+00	9.811508e-01	-2.630459e+00
W	2.407877	7.498338	9.788851	2.150578e-01	3.062959e-01	-1.127846e+00	3.728594e+00	-1.739280e+00	-1.149198e+01
W	3.795323	8.010191	6.145580	-9.467942e-01	-5.675464e-01	-1.268048e+00	1.943350e+01	-6.133568e+00	1.653586e+01
A	7.656714	7.079947	6.868966	-1.037694e-01	2.735492e-01	1.114624e+00	-4.514629e+01	8.464171e+00	-8.241743e-01
A	11.191459	7.202581	6.445356	2.823060e-01	-2.382507e-01	-2.112816e-01	2.364974e+01	-3.022483e+00	5.884673e+00
A	11.254314	7.251102	10.331546	-6.644717e-01	-2.434873e-01	-1.252205e+00	-8.553836e-01	1.290525e+00	-3.195375e+00
A	11.673994	7.661205	14.123147	4.983002e-01	-9.102249e-01	-1.718167e+00	2.332651e+01	1.053557e+01	1.922509e+01
A	14.590522	8.836388	16.831082	6.618645e-01	3.745043e-01	-2.332682e-01	-2.861268e+01	-1.351113e+01	-2.066379e+00
A	14.247704	7.844641	20.702845	-8.295267e-01	-2.079252e-01	1.891866e-01	-6.212624e+00	4.696551e+00	-1.198861e+01
A	16.772983	8.561044	18.131096	-1.314468e+00	-4.848467e-01	-8.556248e-01	2.440652e+01	6.595455e+00	2.063169e+00
C	19.980773	9.308728	20.371716	-1.439858e+00	-4.742968e-01	1.409123e-01	-1.252211e+01	-2.233646e+01	-2.605184e+00
C	19.677378	12.646843	19.068584	3.922450e-01	1.367926e+00	-5.670288e-01	1.989333e+01	2.624003e+00	-8.512216e+00
A	16.849982	14.751363	19.248734	-1.766562e-01	1.193145e-01	-3.083623e-01	-2.944950e+01	1.460842e+01	1.088531e+00
A	13.146473	13.694002	19.029303	-1.514177e-02	5.026892e-01	-9.872404e-01	-1.525508e+01	-2.111992e+01	-1.447367e+01
A	10.296792	11.612393	16.915180	-3.357184e-01	-3.190181e-01	-8.209595e-01	2.195013e+01	1.808221e+01	8.075307e+00
A	9.698333	12.189356	13.135304	-4.248185e-01	-3.341150e-01	5.077225e-01	-1.838873e+00	2.750277e+00	-9.573671e+00
A	8.484189	12.477665	9.376676	-6.040687e-01	6.665575e-01	-3.268293e-01	1.742879e+01	-6.864628e+00	7.967302e+00
A	11.446081	11.860978	6.849453	-3.233681e-01	-3.031826e-01	-4.637593e-01	-2.882295e+01	9.431079e+00	7.925560e+00
W	7.497557	12.203162	6.908974	8.605488e-01	-6.824668e-01	1.460318e-01	1.411814e+01	-1.861929e+00	-2.456212e+00
56
Lattice="0 0.0 0.0  0.0 0 0.0  0.0 0.0 0"	TIME: 6
W	10.805073	19.378659	28.289168	1.919880e-01	9.228828e-01	3.487201e-01	-1.539037e+00	4.941855e+00	-1.147173e+01
A	10.578544	21.055407	24.752585	8.807710e-02	4.618760e-01	-5.710196e-01	-2.120737e+00	-5.678284e+00	1.177562e+01
A	11.359457	20.134695	21.182838	-2.093716e-01	4.208498e-01	-4.675744e-01	7.686334e+00	-6.924971e+00	-1.528928e+01
A	12.732655	18.774016	17.742504	-5.896472e-03	6.008490e-01	3.783677e-01	-9.349282e-01	5.307261e+00	1.671621e+01
A	10.526894	18.152672	14.801700	-5.968852e-01	-2.737855e-01	8.701230e-01	-7.049203e+00	-1.204618e+00	8.070711e-01
A	12.375328	16.611607	11.957406	-9.763652e-01	-1.188364e-01	5.960699e-03	2.935425e-01	2.891089e+00	-1.764298e+01
A	9.011856	18.151805	11.189566	-4.651055e-01	-6.420823e-01	-3.708990e-01	-1.247830e+01	-1.537580e+01	-9.052194e+00
A	6.617289	16.564682	8.479190	1.391306e+00	-2.119238e-02	-5.560081e-01	-9.446660e-01	1.361664e+01	1.070660e+01
A	7.262402	16.183055	4.768791	-7.509097e-01	6.961130e-02	8.395226e-02	2.630601e+00	-1.394293e+01	9.206360e+00
C	8.752554	14.832056	1.655625	5.005839e-01	-1.066557e-02	-1.422421e-01	-2.170474e-01	7.461036e+00	-1.173531e+01
C	7.862775	18.576631	1.078271	-1.623351e-02	-4.822402e-01	5.209098e-01	1.097710e-03	-7.171220e+00	4.085331e+00
A	5.798501	20.176242	3.892222	1.130179e+00	-3.416073e-01	-1.467589e+00	-4.784979e+00	1.990283e+01	4.298984e+00
A	5.777211	20.976120	7.736948	-4.158557e-01	-5.849275e-01	-3.426966e-01	-2.708359e+00	2.049924e+00	-1.426518e+01
A	9.309982	21.897224	8.677134	4.356485e-01	-1.078009e+00	1.190205e+00	4.923569e+00	9.482032e+00	-3.701591e+00
A	12.406683	22.686550	10.743726	-6.307077e-01	7.712207e-01	2.574111e-01	-8.551458e+00	-3.426523e+00	1.112524e+01
A	10.283388	22.827409	14.038193	-3.638055e-01	-7.718186e-01	-9.149718e-01	2.317485e+00	3.578338e+00	7.122574e+00
A	8.972158	22.754726	17.776633	3.096098e-01	9.211131e-01	-1.149036e+00	-8.881681e+00	-1.739896e+01	1.509235e+00
A	6.677980	20.596312	20.375596	5.759181e-01	5.636637e-01	-1.631328e+00	1.054418e+01	4.341101e+01	-3.168509e+01
A	7.126455	17.541483	21.985907	4.182324e-01	-3.957627e-01	-5.649787e-01	-2.321696e+01	-3.157908e+01	3.866971e+01
W	3.858017	16.940692	24.509486	-5.187236e-01	1.241690e+00	1.056132e+00	3.956818e+01	-3.150518e+01	-5.829512e+01
W	3.105971	19.253954	26.715979	-7.048427e-02	5.631427e-01	-5.133449e-01	1.312803e+01	3.862098e+01	3.347173e+01
W	-0.425331	18.931534	26.931577	5.526472e-01	2.947871e-01	1.366444e+00	-2.915406e+01	-7.314936e+00	-1.974459e+00
P	-2.994200	16.309341	25.757541	-6.406546e-01	-6.379144e-01	4.887660e-01	9.426761e+00	-9.736768e-01	3.159034e+00
P	-5.713646	18.695985	24.839928	-4.837616e-01	1.710604e+00	1.540753e-01	-3.812204e+00	2.120466e+00	-1.907090e+00
P	-3.615920	15.924894	23.204283	1.615754e-01	1.808820e-01	-9.551732e-02	1.801535e+00	4.957534e+00	4.440772e+00
P	-0.414164	15.348585	21.193179	9.402587e-01	6.212898e-01	1.824893e-01	5.973332e+00	1.058790e+01	1.325057e+01
P	-3.960455	16.499136	21.023716	8.005259e-01	5.569542e-01	-3.254158e-01	2.955636e+01	3.069871e+01	2.762823e+01
P	-6.376275	14.989939	19.276508	2.376953e-01	6.289024e-02	-2.176221e-01	-3.283895e+01	-2.148495e+01	-2.269969e+01
P	-4.736707	16.663447	16.299926	1.394102e-01	-4.559452e-01	-3.909367e-01	2.963831e+00	-2.000069e+01	1.938603e+01
P	-4.499093	13.022956	18.308820	-2.689010e-01	7.528209e-02	-1.021197e-01	-4.147631e+01	3.829305e+01	-2.744983e+01
P	-1.395600	11.732541	18.162703	7.893328e-01	5.414549e-01	5.838704e-01	3.648953e+01	-2.698684e+01	-1.126366e+01
P	-4.285084	12.229607	15.785064	-7.002716e-01	-6.225444e-01	-1.266851e+00	1.120435e+01	-6.475499e+00	-9.687821e+00
P	-0.923858	13.726552	14.395532	5.554420e-01	-1.151677e-01	7.183041e-01	-3.097220e+01	-1.143739e+01	-4.808768e+00
P	-4.187458	12.450365	12.453732	-2.911082e-01	6.345204e-01	9.066515e-01	1.240707e+01	1.427134e+01	1.155598e+01
P	-2.219975	9.362080	12.057861	4.090083e-01	5.237995e-01	5.017940e-01	1.194097e+00	-1.329854e+01	8.303427e+00
P	-2.464500	11.434239	8.938922	1.548908e+00	4.212969e-01	1.226619e-01	-8.990399e-01	3.433898e+00	-1.227418e+00
W	-0.085524	11.328854	5.988910	8.928159e-01	-2.175047e-01	2.237564e-01	-1.932516e+00	1.354016e+00	-4.500692e+00
W	1.308734	10.474905	9.365242	1.522283e-01	-8.098733e-01	-8.318085e-01	6.459963e+00	-3.124995e-01	-2.170546e-01
W	3.199168	7.602299	7.716980	-3.164601e-01	-1.184646e-01	-6.798328e-01	-4.163093e+00	-5.738705e-01	2.817601e+00
W	5.268539	7.151831	4.581732	6.917893e-01	-5.073827e-01	-7.575725e-01	1.614525e-01	6.793426e-01	-4.073547e+00
A	6.486825	6.422453	8.073677	-1.349002e-01	-1.028466e+00	1.300363e+00	6.099269e+01	9.818962e+00	-1.910736e+01
A	10.623569	6.988357	6.592364	-3.190515e-01	-1.965009e-01	-2.036237e-01	-5.490551e+01	-1.679089e+01	5.734206e-01
A	10.302437	7.794211	10.067291	-4.476101e-01	1.001201e-01	3.047997e-02	7.334754e+00	6.390750e-01	2.432978e+01
A	13.753126	7.997086	11.833515	9.911859e-01	6.601834e-01	-1.665318e+00	-7.859770e+00	-3.782050e-01	1.608169e+01
A	14.115830	7.813885	15.832184	3.969418e-01	-1.076786e+00	-5.261387e-01	-1.106954e+01	3.432265e+00	-6.123747e+00
A	12.470432	8.162045	19.449058	-4.586223e-01	6.433372e-01	-1.362252e+00	-2.472266e+01	-1.247159e+01	1.799228e+01
A	14.831020	8.822075	17.215798	-6.456077e-01	-4.813005e-01	-3.582084e-01	5.102378e+01	1.361226e+01	-1.046271e+01
C	16.697730	10.540887	20.310638	-6.445643e-01	8.313578e-01	2.618124e-01	2.975761e+01	2.027544e+01	-2.660994e+01
C	20.016014	13.020771	19.189421	-3.098638e-01	-3.502578e-01	1.965007e-01	-6.739686e+01	-1.586958e+01	3.702390e+00
A	16.368994	14.591927	18.048307	-3.824954e-01	-7.785970e-02	-3.390870e-01	2.734050e+01	-1.282767e+01	9.192851e+00
A	13.367300	13.867415	15.832770	-4.140225e-01	1.853946e-01	-1.163529e+00	-1.145070e+00	-4.507262e+00	1.091259e+01
A	10.560709	11.299646	15.450508	-4.113180e-01	4.969121e-01	-4.467875e-01	-4.527508e+00	8.113378e+00	-8.709010e+00
A	8.777614	11.706364	12.083362	-4.148036e-01	-4.335170e-01	6.073763e-02	3.180137e+00	-7.977040e+00	4.541217e+01
A	8.765873	12.857932	8.887103	3.213140e-01	-4.740377e-01	-1.163426e+00	1.769255e+01	-1.144777e+01	-3.893975e+01
A	10.503978	11.669595	5.618587	-3.925697e-02	1.944721e-01	-1.429813e+00	3.359707e+01	8.289800e+00	-1.412776e+00
W	7.245995	11.358815	6.558577	-1.404254e-01	-1.564138e-02	1.799362e-01	-3.934776e+01	3.496042e+00	6.080320e+00
56
Lattice="0 0.0 0.0  0.0 0 0.0  0.0 0.0 0"	TIME: 8
W	11.136895	20.571695	27.196140	-3.512603e-01	1.080088e+00	-1.189629e+00	-6.085446e+00	8.580490e+00	-1.631722e+01
A	10.100209	22.493722	23.862335	2.500180e-01	-2.227784e-01	-9.719702e-01	-8.612063e+00	-1.918592e+00	3.120597e+01
A	12.141300	21.296366	21.186766	2.730746e-01	6.322509e-01	7.011583e-01	1.192128e+01	-2.088070e+01	-4.170202e+01
A	12.502687	19.270567	17.692035	-1.898055e-01	1.751554e-01	-4.549233e-01	4.906845e+00	1.161936e+01	2.339083e+01
A	10.780489	17.961592	14.616421	1.758098e-01	9.676814e-01	-9.131926e-01	2.447036e+00	-1.158790e+01	-3.046657e+01
A	10.545098	16.744572	10.787347	-1.626529e+00	1.943157e-01	-1.452724e+00	2.696126e+01	8.882753e+00	2.240987e+01
A	7.069861	16.278677	10.498415	-9.876603e-01	-1.247141e+00	-1.872667e+00	-3.074042e+01	2.654085e+01	-6.786372e+00
A	7.402199	16.042219	6.765224	-1.553762e-01	4.534460e-01	-2.218285e+00	-3.605883e-01	1.802394e-01	-1.628376e+01
A	6.547479	15.419165	2.978751	5.540041e-01	9.541360e-02	-1.118148e-01	2.412783e+01	7.407488e+00	-1.629416e+00
C	9.853944	15.904600	0.691333	-2.142516e-01	1.467435e+00	-6.870415e-01	-2.932811e+01	5.370841e+00	1.504999e+01
C	7.023786	18.590878	1.054681	-6.618528e-01	6.474535e-01	5.128929e-01	8.093766e+00	1.848971e+01	9.372482e+00
A	6.961509	22.343183	2.670494	3.124576e-01	6.356209e-01	-5.024117e-01	-8.173360e-01	-3.203661e+01	2.074705e+00
A	6.636297	20.952751	6.347016	1.300448e+00	-1.699657e-01	-1.123278e+00	-8.253164e+00	-3.276009e+00	-3.228971e+01
A	8.165978	21.936404	9.429560	-1.817112e+00	-4.936368e-01	-1.722034e-01	2.292658e+01	1.287355e+01	2.287626e+01
A	11.331685	24.195679	10.198500	-2.826162e-01	5.007892e-01	7.907525e-01	-3.058232e+01	-2.521502e+01	2.584001e+01
A	9.366491	22.507600	13.462150	5.332834e-01	8.305649e-01	-1.117068e-01	1.733737e+01	8.545580e+00	-4.425482e+01
A	9.474793	23.850745	16.821582	2.899829e-01	2.053994e-01	-1.026771e+00	-9.231312e+00	-1.598780e+01	2.058148e+01
A	7.364549	20.451602	17.286410	-1.624680e+00	-1.319397e-01	-4.424143e-01	-7.042483e-01	2.194560e+01	1.496098e+01
A	6.866855	19.112802	20.935147	3.864238e-01	1.701760e+00	-2.440740e+00	1.665970e+01	1.277343e+01	-3.829673e+01
W	5.530826	18.395449	24.063785	1.104649e+00	6.586666e-01	9.472189e-01	-2.125499e+01	-7.568759e-01	3.334008e+01
W	3.031079	20.974429	25.600097	3.421263e-02	1.549573e+00	-9.872241e-01	-1.816492e+00	-1.457104e+01	2.915624e+00
W	0.370459	18.551117	27.220379	5.358311e-02	-8.627098e-01	-5.689630e-01	2.609283e+01	1.106277e+01	-2.649124e+00
P	-3.195222	18.172454	26.636389	-3.563215e-01	1.902345e+00	-5.659246e-01	-1.304127e+01	-7.615844e+00	-9.620676e-01
P	-4.228730	21.025190	24.463513	8.240871e-01	1.516817e+00	4.757679e-01	-7.100653e+00	2.208341e+01	-1.852432e+00
P	-3.167268	17.629773	23.853000	-1.006235e-01	-1.633332e-01	3.962292e-01	1.921315e+01	-2.322357e+01	-7.960011e+00
P	0.476357	16.530409	22.797105	6.906653e-01	1.149039e-01	7.415335e-01	-1.871057e+00	-5.950499e-01	1.846588e+01
P	-1.852852	17.269435	20.154207	6.339224e-01	-4.517654e-01	-8.545939e-01	-5.737660e+01	-4.859032e+01	-1.803118e+01
P	-4.705515	13.837339	19.891330	1.448227e+00	-8.025153e-01	1.353858e+00	4.163514e+01	5.311364e+01	9.632853e+00
P	-4.368372	16.507449	17.226890	-2.846671e-02	-1.333638e-01	8.003137e-01	4.054867e+00	2.402367e+01	-4.331484e+00
P	-4.795390	13.030475	17.907434	-8.752757e-01	-2.989831e-01	2.703535e-01	6.605624e+00	-2.202225e+01	7.039284e+00
P	-0.849000	12.604859	16.776593	2.679800e-03	5.355430e-01	-6.077416e-01	-2.713772e+01	5.462079e+00	1.341402e+01
P	-4.317465	11.996881	15.469020	-1.580130e-01	1.426354e+00	1.544538e-01	-4.418602e+01	-1.096949e+01	-1.085896e+01
P	-1.040195	12.627332	15.937333	1.501415e+00	-1.204625e+00	2.432014e-01	5.627316e+01	4.750005e+00	-2.325292e+01
P	-3.464597	12.482253	12.794349	6.940586e-02	-9.724419e-02	-1.077154e+00	4.520721e-01	4.702136e+00	1.368198e+01
P	-0.297252	10.683999	12.160841	1.503111e+00	5.945457e-01	6.602144e-01	1.719990e+00	-1.265342e+01	1.380335e+01
P	0.930529	12.154364	9.092259	1.642297e+00	9.231488e-01	-7.436431e-01	3.285144e+00	5.164171e+00	-3.037443e+01
W	0.506618	11.567016	5.197575	-2.693722e-01	6.411250e-01	-2.666282e-01	6.270397e+00	-2.544797e+01	3.672836e+01
W	1.157753	8.277400	7.643831	1.229995e-01	-1.123171e+00	-1.294012e+00	2.961091e+00	2.405122e+01	-2.725724e+01
W	4.105485	6.907075	5.408180	2.317754e-01	-2.635645e-01	-1.463347e+00	-2.188902e+01	4.124195e+00	8.205742e+00
W	7.575794	5.602330	5.054307	1.200543e+00	-5.674367e-01	2.595635e-01	1.915361e+01	-1.170954e+01	-4.951650e+01
A	6.737038	6.238972	8.171876	1.105757e+00	1.461391e-01	-2.785174e-01	-4.945918e+01	1.175430e+01	6.516742e+01
A	9.800213	6.289814	6.767127	-5.002338e-01	1.521158e-01	2.595939e-02	4.363258e+01	3.342631e+00	-9.049640e+00