56
Lattice="0 0.0 0.0  0.0 0 0.0  0.0 0.0 0"	TIME: 0
W	12.555845	22.623573	-7.836050	0.000000e+00	0.000000e+00	0.000000e+00	0.000000e+00	0.000000e+00	0.000000e+00
A	12.964781	19.277881	-7.029685	0.000000e+00	0.000000e+00	0.000000e+00	0.000000e+00	0.000000e+00	0.000000e+00
A	10.482373	20.062800	-10.101414	0.000000e+00	0.000000e+00	0.000000e+00	0.000000e+00	0.000000e+00	0.000000e+00
A	8.136455	23.354584	-9.659904	0.000000e+00	0.000000e+00	0.000000e+00	0.000000e+00	0.000000e+00	0.000000e+00
A	4.892760	20.879544	-10.688213	0.000000e+00	0.000000e+00	0.000000e+00	0.000000e+00	0.000000e+00	0.000000e+00
A	3.118455	24.039162	-12.361296	0.000000e+00	0.000000e+00	0.000000e+00	0.000000e+00	0.000000e+00	0.000000e+00
A	0.809370	24.175273	-9.521355	0.000000e+00	0.000000e+00	0.000000e+00	0.000000e+00	0.000000e+00	0.000000e+00
A	-2.936310	24.557000	-9.652260	0.000000e+00	0.000000e+00	0.000000e+00	0.000000e+00	0.000000e+00	0.000000e+00
A	-6.077076	25.575113	-12.413991	0.000000e+00	0.000000e+00	0.000000e+00	0.000000e+00	0.000000e+00	0.000000e+00
C	-9.025063	28.577682	-13.156061	0.000000e+00	0.000000e+00	0.000000e+00	0.000000e+00	0.000000e+00	0.000000e+00
C	-10.901422	25.563108	-11.064420	0.000000e+00	0.000000e+00	0.000000e+00	0.000000e+00	0.000000e+00	0.000000e+00
A	-8.427315	22.808354	-10.028054	0.000000e+00	0.000000e+00	0.000000e+00	0.000000e+00	0.000000e+00	0.000000e+00
A	-9.971320	21.142452	-6.875368	0.000000e+00	0.000000e+00	0.000000e+00	0.000000e+00	0.000000e+00	0.000000e+00
A	-13.694761	19.381694	-5.399648	0.000000e+00	0.000000e+00	0.000000e+00	0.000000e+00	0.000000e+00	0.000000e+00
A	-12.046945	18.863635	-1.706641	0.000000e+00	0.000000e+00	0.000000e+00	0.000000e+00	0.000000e+00	0.000000e+00
A	-9.809833	20.177213	0.919227	0.000000e+00	0.000000e+00	0.000000e+00	0.000000e+00	0.000000e+00	0.000000e+00
A	-8.232391	24.192034	0.470778	0.000000e+00	0.000000e+00	0.000000e+00	0.000000e+00	0.000000e+00	0.000000e+00
A	-6.330180	25.748248	3.598395	0.000000e+00	0.000000e+00	0.000000e+00	0.000000e+00	0.000000e+00	0.000000e+00
A	-4.905370	23.732605	6.794319	0.000000e+00	0.000000e+00	0.000000e+00	0.000000e+00	0.000000e+00	0.000000e+00
W	-8.141317	25.272836	7.017540	0.000000e+00	0.000000e+00	0.000000e+00	0.000000e+00	0.000000e+00	0.000000e+00
W	-8.823553	22.742671	10.004571	0.000000e+00	0.000000e+00	0.000000e+00	0.000000e+00	0.000000e+00	0.000000e+00
W	-8.964877	21.582988	13.755668	0.000000e+00	0.000000e+00	0.000000e+00	0.000000e+00	0.000000e+00	0.000000e+00
P	-9.099737	21.988664	17.640535	0.000000e+00	0.000000e+00	0.000000e+00	0.000000e+00	0.000000e+00	0.000000e+00
P	-7.220265	21.453425	20.350199	0.000000e+00	0.000000e+00	0.000000e+00	0.000000e+00	0.000000e+00	0.000000e+00
P	-5.353599	24.152256	18.220045	0.000000e+00	0.000000e+00	0.000000e+00	0.000000e+00	0.000000e+00	0.000000e+00
P	-1.821813	24.233713	19.158110	0.000000e+00	0.000000e+00	0.000000e+00	0.000000e+00	0.000000e+00	0.000000e+00
P	-4.632529	23.820299	17.820595	0.000000e+00	0.000000e+00	0.000000e+00	0.000000e+00	0.000000e+00	0.000000e+00
P	-3.583945	24.492516	14.345130	0.000000e+00	0.000000e+00	0.000000e+00	0.000000e+00	0.000000e+00	0.000000e+00
P	-1.945935	20.707549	14.272932	0.000000e+00	0.000000e+00	0.000000e+00	0.000000e+00	0.000000e+00	0.000000e+00
P	0.910596	19.704658	17.266264	0.000000e+00	0.000000e+00	0.000000e+00	0.000000e+00	0.000000e+00	0.000000e+00
P	3.821427	21.353783	15.749751	0.000000e+00	0.000000e+00	0.000000e+00	0.000000e+00	0.000000e+00	0.000000e+00
P	5.460554	23.071655	12.427593	0.000000e+00	0.000000e+00	0.000000e+00	0.000000e+00	0.000000e+00	0.000000e+00
P	8.405163	24.718237	14.522841	0.000000e+00	0.000000e+00	0.000000e+00	0.000000e+00	0.000000e+00	0.000000e+00
P	11.483642	22.459502	14.879932	0.000000e+00	0.000000e+00	0.000000e+00	0.000000e+00	0.000000e+00	0.000000e+00
P	14.704715	25.268174	13.111869	0.000000e+00	0.000000e+00	0.000000e+00	0.000000e+00	0.000000e+00	0.000000e+00
P	13.578365	21.803892	12.328794	0.000000e+00	0.000000e+00	0.000000e+00	0.000000e+00	0.000000e+00	0.000000e+00
W	15.824181	20.886940	14.931479	0.000000e+00	0.000000e+00	0.000000e+00	0.000000e+00	0.000000e+00	0.000000e+00
W	18.080496	19.607673	12.341963	0.000000e+00	0.000000e+00	0.000000e+00	0.000000e+00	0.000000e+00	0.000000e+00
W	16.757069	16.397025	14.481482	0.000000e+00	0.000000e+00	0.000000e+00	0.000000e+00	0.000000e+00	0.000000e+00
W	20.092401	15.635062	16.288441	0.000000e+00	0.000000e+00	0.000000e+00	0.000000e+00	0.000000e+00	0.000000e+00
A	19.638968	12.664489	18.610465	0.000000e+00	0.000000e+00	0.000000e+00	0.000000e+00	0.000000e+00	0.000000e+00
A	21.926819	10.689394	17.396863	0.000000e+00	0.000000e+00	0.000000e+00	0.000000e+00	0.000000e+00	0.000000e+00
A	22.467622	9.159429	14.143196	0.000000e+00	0.000000e+00	0.000000e+00	0.000000e+00	0.000000e+00	0.000000e+00
A	20.265828	11.408582	12.132109	0.000000e+00	0.000000e+00	0.000000e+00	0.000000e+00	0.000000e+00	0.000000e+00
A	17.215868	11.955422	10.534722	0.000000e+00	0.000000e+00	0.000000e+00	0.000000e+00	0.000000e+00	0.000000e+00
A	17.566273	11.687531	6.345451	0.000000e+00	0.000000e+00	0.000000e+00	0.000000e+00	0.000000e+00	0.000000e+00
A	14.437655	10.883690	3.942068	0.000000e+00	0.000000e+00	0.000000e+00	0.000000e+00	0.000000e+00	0.000000e+00
C	13.525713	14.827574	2.707679	0.000000e+00	0.000000e+00	0.000000e+00	0.000000e+00	0.000000e+00	0.000000e+00
C	14.855021	18.438528	1.925011	0.000000e+00	0.000000e+00	0.000000e+00	0.000000e+00	0.000000e+00	0.000000e+00
A	16.224337	19.531947	-1.215833	0.000000e+00	0.000000e+00	0.000000e+00	0.000000e+00	0.000000e+00	0.000000e+00
A	19.286499	21.174268	-2.876280	0.000000e+00	0.000000e+00	0.000000e+00	0.000000e+00	0.000000e+00	0.000000e+00
A	21.737145	19.401160	-4.800332	0.000000e+00	0.000000e+00	0.000000e+00	0.000000e+00	0.000000e+00	0.000000e+00
A	23.972353	18.951329	-7.739753	0.000000e+00	0.000000e+00	0.000000e+00	0.000000e+00	0.000000e+00	0.000000e+00
A	25.968819	18.292810	-5.046077	0.000000e+00	0.000000e+00	0.000000e+00	0.000000e+00	0.000000e+00	0.000000e+00
A	26.784372	21.811937	-6.543655	0.000000e+00	0.000000e+00	0.000000e+00	0.000000e+00	0.000000e+00	0.000000e+00
W	25.413108	24.141527	-3.964237	0.000000e+00	0.000000e+00	0.000000e+00	0.000000e+00	0.000000e+00	0.000000e+00
56
Lattice="0 0.0 0.0  0.0 0 0.0  0.0 0.0 0"	TIME: 2
W	13.820797	22.490010	-7.760539	9.197460e-01	-6.481683e-03	-3.476124e-02	-1.818640e+00	-9.600725e+00	1.782048e+00
A	13.056963	18.733558	-7.041563	-2.483465e-01	-2.639475e-01	-2.070867e-01	-2.131902e+01	2.186456e+01	-2.609870e+01
A	10.352654	20.175423	-9.845590	6.874816e-02	1.760352e-01	4.088983e-01	1.839495e+00	7.260312e+00	2.136113e+01
A	7.353214	22.932018	-10.211886	-3.410306e-01	-5.388482e-01	-4.725301e-01	4.758770e+01	-9.225219e-01	1.130734e+01
A	4.642082	20.977794	-11.137474	-1.123734e-01	2.218880e-01	-4.610500e-01	-1.828844e+01	-3.347302e+01	-5.042141e-01
A	3.154529	23.842222	-12.763368	4.759865e-01	-3.668597e-01	-7.401500e-01	-1.605942e+01	1.527493e+01	4.612143e+00
A	1.008439	23.977735	-9.444339	5.633730e-01	-5.805589e-02	8.872905e-01	-9.716922e+00	2.206502e+00	-1.734896e+01
A	-2.810965	24.555219	-10.413439	-4.613296e-01	-1.044028e-01	-5.340226e-02	7.856996e+00	5.516691e+00	-4.365439e+00
A	-5.361810	26.581644	-12.658268	-7.720488e-02	4.589740e-01	-3.920677e-01	2.592517e+00	-6.335270e+00	9.089661e+00
C	-8.899297	28.132965	-12.913487	7.257263e-03	1.376664e-01	4.028934e-02	1.794419e+01	1.052776e+01	-1.024549e+01
C	-10.895915	25.800452	-11.045461	1.388825e-01	-1.225796e-01	1.453916e-01	4.606264e+00	-4.142699e+01	1.680111e+01
A	-8.878298	22.279969	-10.279478	-4.994236e-01	-1.568792e-01	5.335800e-01	-2.804880e+01	1.637591e+01	3.195841e+01
A	-10.102787	21.025908	-6.434994	4.933963e-02	3.207602e-02	-3.626473e-01	2.007952e+00	7.438868e+00	-3.646942e+01
A	-13.521009	19.301437	-5.592363	-1.302939e-02	2.970544e-02	-7.873358e-01	1.677074e+01	3.185370e+00	1.494696e+01
A	-12.181204	18.857916	-1.863073	-5.062284e-02	-1.889674e-01	3.564115e-01	6.284101e+00	8.975314e+00	-4.495267e+00
A	-9.588455	20.278852	0.821911	-2.630262e-01	-7.564055e-01	-7.215936e-02	-6.890770e+00	7.418057e+00	-1.426926e+01
A	-8.134401	23.941165	0.480576	3.676427e-01	7.178338e-01	1.373890e-02	4.559389e-01	-6.916669e+00	1.428741e+01
A	-6.645645	25.754856	3.674559	-6.952981e-02	-8.144367e-02	-1.144291e-01	1.078993e+01	-2.341932e+01	1.242312e+01
A	-4.623500	23.841034	6.747112	1.599537e-01	8.325385e-02	-1.789192e-01	-1.733443e+01	1.613779e+01	-2.599384e+01
W	-8.105194	25.284576	7.262280	-2.482930e-02	-7.170525e-02	4.642041e-01	-3.957903e+00	-1.148511e+01	1.561080e+01
W	-8.982056	22.961229	10.393424	-1.031568e-01	4.968872e-01	4.771155e-02	5.875106e+00	1.578450e+01	-3.033148e+01
W	-9.448841	21.913008	13.852115	-2.201952e-01	1.233936e-01	-9.295478e-01	-2.988310e+00	-5.046562e+00	5.508186e+00
P	-9.373022	22.013344	17.556201	-1.318572e-01	7.029092e-02	6.562344e-01	2.928350e+00	1.383292e-01	1.191787e+01
P	-8.151331	20.929306	21.020223	-6.920249e-01	-5.197344e-01	5.618802e-01	2.018282e+01	2.033195e+01	-1.419667e+01
P	-5.341379	23.526875	19.555997	4.217155e-01	-1.515202e-01	3.293118e-01	1.432920e+00	-1.641113e+01	6.597665e+00
P	-1.371555	23.901650	18.995377	-6.861179e-01	-4.604559e-01	-6.646618e-01	-2.456500e+01	-1.650679e+00	2.120485e+00
P	-4.502925	24.029578	16.826384	7.814545e-01	-6.963145e-02	-9.924086e-03	1.363405e+00	-1.293522e+00	-2.785665e-01
P	-3.062738	24.335638	13.292094	4.917009e-01	-8.006211e-01	3.326700e-02	4.756443e+00	-1.405201e+01	1.074918e+01
P	-1.847266	20.929199	14.904954	1.752261e-01	5.262291e-01	4.854535e-01	7.360467e+00	9.918163e+00	4.473644e+00
P	0.914802	19.890687	17.548317	2.673695e-01	6.195057e-01	-3.802760e-01	8.286358e+00	1.410458e+01	-2.175820e+01
P	4.143017	21.598975	15.813198	-2.553896e-01	-2.673134e-01	7.910225e-01	-1.607297e+01	-6.657670e+00	2.782982e+00
P	5.514326	23.179860	12.537841	5.271171e-02	4.009085e-01	-3.921024e-01	9.912660e+00	4.462115e+00	1.904715e+01
P	8.194475	24.873724	14.961761	6.361963e-01	-3.037937e-01	-5.790239e-02	1.031893e+01	-2.241452e+01	-1.756472e+01
P	11.581295	22.793124	14.132804	-5.527807e-01	6.277874e-01	-2.141651e-01	-1.330683e+01	1.858524e+01	4.045036e+00
P	14.726854	25.047029	13.641391	4.482394e-01	3.548482e-01	4.355865e-01	8.891651e+00	1.825537e+01	9.792423e+00
P	12.891982	22.246493	12.671629	-9.998376e-01	-2.234335e-01	1.247774e-01	8.367510e+00	-3.738725e+01	1.228098e+01
W	15.986223	20.730312	15.009749	-2.208769e-01	1.222098e-01	6.131596e-01	-2.955072e+01	1.482259e+01	-1.790607e+01
W	18.106806	19.595416	12.112531	-3.581969e-02	-2.686546e-01	-2.233342e-01	4.380232e+00	7.402494e+00	-9.611332e+00
W	16.952252	17.134557	14.609955	3.841855e-01	9.272253e-01	-1.750985e-02	1.194420e+00	-8.263074e+00	1.025763e+01
W	20.197801	15.930215	16.310837	-2.124724e-02	6.565035e-02	7.275971e-02	-5.422511e+00	-1.949748e+00	1.252955e+00
A	19.477001	13.092783	18.812806	-3.259159e-01	3.913297e-01	4.312212e-01	-5.787501e+00	9.883190e+00	1.164442e+00
A	21.950199	10.851607	17.217726	7.550406e-02	3.391497e-01	4.685439e-01	1.664417e+00	1.475884e+01	3.608225e+01
A	22.323441	9.325577	14.267662	2.408933e-01	-5.486758e-01	-3.622605e-01	9.103599e+00	-2.439534e+01	-3.516229e+01
A	20.337466	11.006002	11.599878	-3.979323e-01	-1.767695e-01	-7.349877e-01	-6.163099e+00	3.741929e+00	-6.573484e+00
A	16.951243	12.165461	10.247844	-4.582357e-02	-8.542022e-02	-2.673260e-01	2.568391e+00	-1.723110e+00	-2.710494e+00
A	17.317685	11.632230	6.470199	-9.537970e-01	-2.252123e-01	-3.518943e-01	-2.559480e+00	3.017813e-01	1.577478e+00
A	14.179010	11.153008	4.334389	8.485583e-01	1.981333e-01	8.261025e-01	-7.847810e-01	1.569702e+01	-7.604588e+00
C	13.523434	14.533302	2.337604	-1.103736e-01	-8.068929e-02	-1.921824e-01	1.052340e+01	1.208066e+01	4.893491e+00
C	14.599554	18.431994	1.747965	-1.099499e-01	-6.118680e-03	-2.335278e-01	-9.292298e+00	-2.872407e+01	7.161147e+00
A	16.472594	19.656554	-1.278641	-4.871622e-01	-2.388597e-01	2.505189e-01	-1.331492e+01	-7.644530e+00	4.628577e+00
A	19.377141	21.321783	-2.629288	8.684855e-01	3.426813e-01	-6.757889e-02	1.128019e+01	1.202218e+01	-3.199397e+00
A	21.639706	19.348125	-4.853800	-2.407659e-02	-9.293442e-02	-2.531653e-01	1.911256e+00	-3.895853e+00	-2.327226e+00
A	23.708798	18.871521	-7.987298	-4.505195e-01	2.691762e-02	5.117130e-02	2.234012e+01	-4.565521e+00	2.173676e+01
A	26.496227	18.320583	-5.005865	7.297830e-01	3.626510e-01	-8.641076e-02	-2.072153e+01	9.327397e+00	-2.519201e+01
A	27.042094	21.844166	-6.472993	6.313331e-02	-1.791124e-01	3.112212e-01	-8.424329e+00	1.250900e+01	1.858041e+01
W	25.680443	24.579481	-3.807578	2.556608e-01	2.595310e-01	1.862031e-01	9.010138e+00	-1.665516e+01	-1.662373e+01
56
Lattice="0 0.0 0.0  0.0 0 0.0  0.0 0.0 0"	TIME: 4
W	15.112815	21.875572	-7.418326	4.582290e-01	-1.712441e-01	2.880670e-01	9.341611e-01	2.475268e+00	-5.691533e-01
A	13.080400	18.698967	-7.541737	-4.241529e-01	2.744583e-01	-6.196717e-01	-1.646717e+01	7.101092e+00	-9.890857e+00
A	10.110632	20.567416	-9.464642	1.312097e-02	-7.028972e-02	-3.310602e-03	3.335698e+00	6.135039e-01	4.790393e+00
A	7.248748	23.024455	-10.675407	5.274411e-01	-1.492886e-01	1.047495e-01	-1.513518e+01	-3.426261e+01	-2.967030e+00
A	4.196217	20.317727	-11.551452	-8.196707e-02	-4.465981e-01	-1.314893e-01	2.502466e+01	3.076017e+01	5.307821e+00
A	3.012761	23.764792	-12.865360	-3.164343e-01	1.683516e-01	1.627947e-01	-4.930324e+00	-6.009289e+00	1.302654e+01
A	0.800924	23.944282	-9.624811	6.372687e-01	-7.313700e-02	-3.899395e-01	-4.890560e+00	2.332499e+00	-1.403505e+01
A	-2.846444	24.844629	-10.759532	4.417177e-01	-3.429502e-01	4.052381e-01	2.076721e+01	-7.760627e+00	9.041700e+00
A	-5.704377	26.413100	-12.474654	-2.515458e-01	-3.582075e-01	-3.807380e-01	-1.457873e+00	-2.606538e+00	-3.465531e+00
C	-8.651368	28.602548	-12.865055	-1.063261e+00	5.347782e-01	6.370992e-02	-2.585903e+01	-1.654615e+01	1.496298e+01
C	-10.813603	25.723012	-10.844398	3.683461e-01	2.055133e-01	-3.592344e-01	1.534063e+01	2.700297e+01	-1.739074e+01
A	-9.311913	22.441768	-9.809857	-1.713493e-01	4.744735e-03	5.397158e-01	2.034511e+00	-4.471436e+00	3.393008e+00
A	-9.958702	20.731604	-6.441912	-6.901392e-01	-4.611882e-01	-4.768120e-01	-1.374337e+01	-6.463437e+00	-4.654390e-02
A	-13.355066	18.837976	-5.649228	7.453120e-01	1.220725e-01	-9.591833e-01	9.898897e+00	5.531729e+00	-2.611571e+01
A	-12.663876	19.219449	-2.170999	-6.715520e-01	-4.804605e-02	-6.912030e-02	3.122295e+01	1.056780e+01	4.323154e+01
A	-9.464116	20.187612	0.281332	3.680623e-01	-5.254179e-01	1.525215e-01	-2.402442e+01	-1.098946e+00	-1.964284e+01
A	-8.092751	23.803649	0.530336	3.423313e-01	6.049337e-01	7.446579e-02	1.774395e+00	-2.382770e+00	7.525772e+00
A	-6.429839	25.555253	3.597253	-8.069378e-02	9.612385e-02	-3.895684e-01	-1.316951e+01	5.706377e-01	-2.156825e+01
A	-4.530443	24.431254	6.481824	1.802012e-01	1.556642e-01	1.788814e-01	2.211347e+01	-7.973128e+00	9.071187e+00
W	-7.965174	25.153814	7.510046	3.014922e-01	-2.496338e-02	6.359843e-02	-9.503184e+00	8.465995e+00	-4.185115e+00
W	-9.304723	23.245328	10.372499	-2.911307e-01	-4.254555e-01	9.459666e-01	-4.637905e+00	-6.951817e+00	1.126409e+01
W	-9.862059	21.678533	13.825358	-5.408563e-02	3.451966e-02	-4.149375e-01	1.364428e+00	2.160886e+00	2.079767e+00
P	-8.981559	22.406518	17.502701	2.375345e-01	3.721788e-01	-3.802476e-01	1.162845e+00	-4.818908e+00	4.664560e+00
P	-8.789089	20.787118	21.052621	-6.593412e-01	-2.976552e-01	-5.259809e-02	-1.666865e+00	3.927258e+00	-9.868495e+00
P	-5.428861	22.450864	20.553423	2.454629e-01	-6.688569e-02	2.601264e-01	4.306519e+01	1.611773e+01	-1.777993e+01
P	-1.680542	23.813684	19.007328	1.643736e-01	-6.168112e-02	3.191714e-01	-2.867729e+01	-1.554882e+01	3.277092e+01
P	-4.125219	23.959008	16.384412	-2.972708e-02	-6.025064e-02	-3.389883e-01	-2.482710e+01	1.488141e+00	7.355261e+00
P	-2.645534	23.685878	13.157523	2.461004e-01	-4.011830e-01	2.014165e-02	1.050553e+01	-1.059158e+00	-2.155717e+01
P	-1.613007	20.653078	15.179976	2.509530e-01	-1.311948e-01	-4.887133e-02	-9.959424e+00	8.908478e-01	-8.457003e+00
P	1.211389	20.236576	17.467619	1.552151e-01	2.755935e-01	-2.491193e-01	4.415721e+01	1.114667e+01	-3.794332e+00
P	4.901569	21.659843	16.129068	3.004610e-01	1.056686e-01	-2.162702e-01	-3.221963e+01	-9.808719e+00	6.674126e+00
P	5.397926	23.528730	12.790460	6.430429e-02	-1.031119e-01	8.037331e-01	-1.913845e+01	-1.025573e+01	-9.460464e+00
P	8.057001	24.567929	14.904887	2.435947e-03	-2.129561e-01	-2.592810e-01	4.531863e+01	-3.657528e+00	2.816455e+00
P	11.598263	23.157442	13.339858	-1.311709e-01	2.226107e-03	-3.103978e-01	-2.118954e+01	1.422455e+01	1.202862e+01
P	15.261278	24.389260	13.750930	4.381944e-01	-4.753866e-01	-2.500889e-01	2.859129e+01	1.721296e+01	-2.789201e+00
P	12.387684	22.617538	13.876210	-3.789581e-01	4.242874e-01	6.976857e-01	-4.835664e+01	-1.576488e+01	-4.589438e+00
W	15.384270	21.075389	15.276190	-4.838887e-02	2.368334e-01	7.065987e-02	2.960205e+01	-1.413853e+01	-1.662085e+01
W	17.556166	20.110778	11.948506	-6.014243e-01	2.519269e-01	5.611878e-01	-1.581154e+01	2.032294e+01	4.897113e+00
W	17.406606	18.242803	14.990708	5.468669e-01	5.093245e-01	-1.737044e-01	-2.941350e+00	-9.453351e+00	1.826997e+01
W	20.093208	16.020844	16.444579	-4.844289e-01	8.938826e-03	2.482733e-01	1.725792e+00	-1.436158e+00	1.193026e+00
A	19.305207	13.459375	19.141324	-7.409175e-01	1.205485e+00	6.899153e-01	-6.229675e+00	5.808832e+00	6.533608e+00
A	21.460782	11.507863	16.865427	1.890217e-01	3.212099e-02	-9.026600e-01	4.866886e+00	-8.849904e-01	1.246750e-01
A	22.109817	9.362338	13.901520	6.135833e-02	-2.486800e-01	-2.455024e-01	1.541750e+01	-1.173376e+01	1.161448e+01
A	20.046228	10.365332	11.179312	-1.174515e-01	-2.996599e-01	-2.774433e-01	-4.478354e+00	2.151270e+00	-1.563244e+01
A	16.830235	11.909067	10.227729	-1.860608e-01	-3.053382e-01	-1.066340e-01	-1.460662e+01	7.291015e+00	2.850582e+01
A	17.391246	11.594445	6.807312	1.270675e-01	9.462615e-02	1.624950e-01	-5.280148e+00	-1.820050e+00	-3.778063e+01
A	14.039557	11.896885	4.794546	-2.618840e-01	7.930792e-01	-3.392619e-01	1.181371e+01	-6.842476e+00	1.261303e+01
C	13.437158	14.383960	2.106826	1.386875e-01	-4.469861e-01	4.282784e-01	3.613379e-01	1.486856e+01	-8.193922e+00
C	14.198974	18.129982	1.372485	-6.200972e-01	-4.282521e-01	2.324831e-01	1.034798e+01	-6.031265e-01	-1.017399e+01
A	16.737482	19.894996	-1.150180	2.531321e-01	1.127989e-01	-2.676019e-02	-1.631292e+01	-1.047642e+01	1.455301e+01
A	19.875981	21.287752	-2.654615	6.835506e-01	-1.337866e-01	-5.009886e-01	-3.893985e+00	1.270009e+01	1.217186e+01
A	21.394706	19.272054	-5.229499	-3.176748e-01	5.674057e-02	-1.573897e-01	-6.136231e+00	-8.633820e+00	1.833113e-01
A	23.911664	18.787032	-7.758998	4.390348e-01	-1.096973e-01	2.534166e-01	-6.719646e-01	-5.661773e-01	-2.727319e+01
A	26.558266	18.388185	-5.348547	-1.910798e-01	3.104413e-01	-2.940944e-01	1.501837e+01	3.905571e-01	1.284384e+01
A	27.119877	22.133522	-5.896970	-1.608560e-01	2.117383e-01	5.303981e-01	5.522173e+00	-1.836901e+01	-1.149295e+01
W	26.196762	24.932955	-3.840772	4.563749e-01	-1.083338e-02	-1.909030e-01	-5.071252e+00	1.627439e+01	1.183234e+01
56
Lattice="0 0.0 0.0  0.0 0 0.0  0.0 0.0 0"	TIME: 6
W	15.611425	21.658884	-7.177438	2.073068e-01	3.785875e-02	1.215799e-02	-1.132098e+01	-1.232646e+01	-4.922530e+00
A	13.261998	18.596003	-8.089205	-1.957730e-01	-9.264866e-02	-2.983717e-01	-1.544988e+01	2.696452e+01	-7.114938e+00
A	9.905927	20.474238	-9.536000	-3.267950e-01	4.601202e-02	-2.310249e-01	8.619989e+00	-1.797689e+00	2.498370e+00
A	6.908398	22.691218	-11.050217	-4.050167e-01	-9.385297e-01	4.295395e-03	2.388412e+01	-6.584697e+00	1.113872e+01
A	4.222325	20.381493	-12.139170	1.620142e-01	3.414217e-01	-2.134008e-01	-2.082355e+00	-1.758307e+01	-7.890509e-01
A	2.872170	23.749215	-12.705348	1.669849e-02	-1.384222e-01	1.303079e-01	1.128021e+01	9.161225e+00	-1.863422e+01
A	0.415194	24.143891	-10.148875	-9.822990e-03	1.423847e-01	-2.674788e-01	3.507360e+00	-1.591242e+00	2.226948e+01
A	-2.971302	24.864722	-11.093540	-3.802875e-01	1.113738e-02	-6.162922e-01	-5.676459e+00	-1.362278e+00	-3.442494e+00
A	-6.313673	26.230941	-11.614063	-3.445510e-01	-4.066889e-01	8.379115e-01	-1.913560e+01	1.103347e+01	-4.399142e+00
C	-8.859784	28.921784	-12.762623	-4.257195e-01	8.327308e-02	3.699130e-02	1.387241e+00	-1.102040e+01	4.663341e+00
C	-10.903740	25.890280	-11.490291	5.059732e-01	-5.020117e-01	5.733942e-02	1.589018e+01	-1.544025e+01	1.227189e+01
A	-9.149987	22.862165	-9.385187	-7.718960e-01	5.116391e-01	2.463592e-01	-1.942469e+01	5.692105e+00	2.513635e+00
A	-10.311125	20.287927	-6.497751	1.310184e-01	-1.072278e-02	-5.033420e-01	1.580649e+01	2.030926e+01	-1.826932e+01
A	-13.535727	18.484635	-6.324042	-4.780142e-01	-8.744092e-02	-5.990131e-01	-1.116845e+00	1.982262e+00	2.253698e+01
A	-12.255188	19.634540	-2.664797	-3.779229e-02	9.148802e-02	-7.578506e-01	-6.590302e+00	-6.634367e+00	-2.083441e+01
A	-9.649021	20.363299	0.026816	2.217575e-01	-1.274682e-01	6.777068e-01	-1.319581e+01	-2.420644e+01	-4.798864e+00
A	-8.073147	23.475222	0.563268	-1.314048e-01	-1.755642e-01	-2.957894e-01	2.051921e+01	3.250761e+01	1.462455e+01
A	-5.994646	25.606722	3.174861	3.718547e-01	4.961648e-01	9.253682e-03	-1.370461e+01	-5.555091e+00	-1.949332e+01
A	-4.181754	24.560514	6.216154	1.317323e-01	1.264602e-01	1.961543e-01	-9.564660e+00	-1.714511e+00	1.590405e+01
W	-7.732799	24.871614	7.953036	4.418382e-01	-7.244812e-02	-8.160033e-02	2.422626e+01	6.659731e+00	-2.015099e+01
W	-9.651308	23.272506	10.574682	-1.758316e-01	-4.208520e-02	3.304034e-01	-1.118787e+01	-1.271878e+01	2.323730e+01
W	-10.192942	21.634359	14.088665	-4.300522e-02	2.238884e-01	4.671509e-01	3.197052e+00	6.302481e+00	-7.008890e+00
P	-8.571053	23.185212	17.202525	-1.246128e-01	-2.291474e-01	9.198629e-02	1.345824e+00	4.266133e+00	-1.019380e+01
P	-9.118922	20.936926	20.098801	3.126107e-01	5.779808e-01	-1.050484e+00	1.770786e+01	-6.419618e-01	1.216646e+01
P	-5.379383	21.887087	21.151115	-6.416575e-01	-6.127261e-01	2.903129e-01	-2.957135e+00	2.005445e+00	-1.386351e+01
P	-2.074775	23.279667	19.397808	2.684772e-01	-3.294541e-01	2.958923e-01	-1.364411e+01	-8.947066e+00	1.970252e+01
P	-3.687733	24.046490	16.194752	3.852651e-02	3.513090e-01	-2.391293e-01	-3.917979e+00	1.077902e+00	-1.420525e+01
P	-2.042858	23.368762	12.792333	3.295414e-01	3.486999e-02	-6.284011e-01	3.508526e+00	-1.606752e+01	1.633176e+01
P	-1.306332	20.191304	15.124894	5.012019e-01	-6.577361e-02	4.435066e-01	1.129448e+01	2.299039e+01	5.757027e-01
P	1.716768	21.229151	17.519696	1.038316e-01	4.296391e-01	-3.240550e-01	-3.767113e+01	-8.477645e+00	-5.274424e+00
P	5.055139	21.590731	16.419536	-9.344952e-02	1.741320e-01	-2.235336e-01	2.500240e+01	5.008208e+00	-1.194073e+01
P	4.775083	23.579205	13.148554	-5.196792e-01	-2.373416e-01	1.870291e-01	-6.368564e+00	-4.649530e+00	2.727677e-01
P	7.848472	24.825525	14.858796	-4.739825e-01	4.162548e-01	2.783362e-01	4.884438e+00	1.357255e+00	4.000051e+00
P	11.253676	24.213554	13.342828	-1.211447e-01	2.667961e-01	-1.367588e-01	-2.727608e+01	-5.588698e+00	-2.438569e+00
P	14.709188	24.633988	13.583842	-4.286264e-01	1.864341e-01	2.600051e-01	4.822995e+01	2.386645e+01	-2.817360e+00
P	12.633595	21.854265	14.175821	1.035806e+00	-2.549748e-01	-5.280439e-03	-1.726101e+01	-2.093043e+01	5.337846e+00
W	16.220082	21.206574	15.328756	2.361516e-01	1.127333e-01	1.550356e-01	-6.092638e+00	5.063626e+00	1.063097e+01
W	16.874026	20.252949	11.841146	-2.907352e-01	-2.818865e-01	1.541622e-01	4.013391e+00	-5.832710e+00	-1.174736e-01
W	17.826138	18.894287	15.396188	2.259987e-01	1.871081e-01	1.816565e-01	-1.344191e+01	2.229051e+01	-1.729917e+01
W	19.630881	15.966740	16.410159	-4.612743e-01	-2.319109e-01	1.867219e-01	1.173214e+01	-1.350092e+01	1.017983e+00
A	19.321883	13.583872	19.264156	-1.565933e-01	6.144259e-01	2.334449e-01	-1.314695e+01	1.038404e+01	3.683371e+01
A	20.487311	12.211758	16.344870	-4.565558e-01	6.039873e-01	-4.910155e-01	1.273590e+01	-1.493885e+01	-3.132487e+01
A	21.773322	9.633050	13.867943	4.030346e-01	-2.940169e-01	-9.775291e-02	1.309346e+01	1.319889e+00	2.051652e+01
A	19.876425	9.412209	10.868311	-2.522225e-01	-8.081208e-01	-5.794044e-01	7.289131e+00	-1.227480e+01	-1.664598e+01
A	16.768436	11.054707	10.262572	-2.078091e-01	-3.073334e-01	2.611722e-02	-1.778948e+01	1.475552e+01	-3.077790e+01
A	17.160074	11.671884	6.257962	-3.620300e-01	-1.702081e-01	-2.710927e-01	2.804490e+01	-1.181391e+01	3.718377e+01
A	13.981750	12.490735	5.147187	-3.003633e-01	2.356306e-01	-8.159456e-04	-3.092382e+01	9.204223e+00	-1.304646e+01
C	13.675883	14.311596	1.796674	2.388771e-01	-5.153398e-02	-2.332975e-01	-1.695243e+00	-1.151048e+01	4.153084e+00
C	14.333340	17.884815	1.131331	2.522858e-01	5.654416e-03	-1.440343e-02	2.983639e+00	1.087773e+01	-2.391063e+00
A	17.073152	19.918618	-0.573143	3.985872e-01	-5.147281e-03	2.363260e-01	1.687508e+00	-5.245754e-02	-1.163082e+00
A	19.993534	20.855970	-2.876003	-2.575299e-01	1.090113e-01	5.258641e-01	-7.605464e+00	6.508808e+00	1.568779e+01
A	21.226191	19.119497	-5.830952	-1.441301e-01	-3.936779e-01	-3.944421e-01	-2.351393e+01	-2.356449e+00	1.298176e+01
A	23.743055	18.605961	-8.073245	-4.567575e-02	-1.521963e-01	-8.443081e-01	3.516236e+01	-6.543965e+00	-2.037665e+01
A	26.710889	18.308719	-5.587154	4.797067e-01	-7.544334e-02	7.122190e-02	-6.929830e+00	-2.061297e+01	-6.533784e+00
A	26.824773	21.888656	-5.386038	-2.252671e-01	-6.448375e-02	4.459644e-01	1.581612e+00	2.183663e+01	1.298071e+00
W	26.764834	25.367615	-3.852632	1.747947e-01	-1.252413e-02	-1.059088e-01	6.970145e-02	-1.497691e-01	-8.082934e-02
56
Lattice="0 0.0 0.0  0.0 0 0.0  0.0 0.0 0"	TIME: 8
W	15.554869	21.795624	-7.234915	-4.047862e-01	-1.253780e-01	-1.972509e-01	-1.288966e+01	-1.546082e+01	-5.945278e+00
A	13.232892	18.699923	-8.270936	1.067133e-01	5.093804e-01	1.818143e-02	-3.667396e-01	2.029730e+01	1.144384e+00
A	9.701464	19.963169	-9.466353	1.521063e-01	-2.880560e-01	3.393177e-02	-5.344737e+00	6.617029e+00	-3.386689e+00
A	6.495680	21.963932	-10.841448	-6.119076e-02	-6.558964e-02	1.939089e-01	5.713334e+00	-1.999460e+01	-2.514413e+00
A	3.831939	20.005125	-13.058784	-2.231630e-01	-5.969560e-01	-5.544012e-01	1.041055e+01	1.605462e+01	1.074947e+01
A	2.932268	23.756921	-12.710408	1.360513e-01	1.744835e-01	1.084588e-01	7.954036e+00	-8.794694e+00	-4.465941e+00
A	-0.176398	24.578512	-10.829880	-5.407322e-01	3.564605e-01	-3.624559e-01	1.342596e+01	-8.390467e-01	9.446028e+00
A	-3.605753	25.018120	-11.802747	-7.645423e-01	6.688473e-02	-1.649424e-01	-7.370643e+00	-1.700369e+00	-8.965017e+00
A	-6.954379	26.186782	-10.867979	2.453497e-01	-7.510325e-02	1.065871e-01	3.584550e+00	-2.228730e+01	1.980507e+01
C	-8.665797	28.747396	-12.438262	1.905986e-01	-2.551113e-01	3.963853e-02	-2.150798e+01	1.485856e+01	-1.457170e+01
C	-10.203836	25.163247	-12.096009	6.916805e-02	-3.994373e-01	3.130713e-01	1.610360e+00	3.006129e+00	1.400937e+01
A	-10.772381	23.399554	-8.584860	-5.235336e-01	-1.549698e-01	-1.325114e-01	6.003755e+00	-6.480792e+00	-9.065053e+00
A	-10.265757	19.864886	-6.837071	-3.735311e-01	3.702714e-01	-1.855203e-01	-2.558368e+01	7.275230e+00	-3.741765e+00
A	-14.015307	18.499862	-6.117767	8.464374e-02	-1.697170e-02	1.434320e-01	1.928272e+01	5.845559e+00	-8.968869e+00
A	-11.654735	20.007114	-3.650300	2.201002e-01	1.862274e-01	-3.266655e-01	7.804067e+00	3.914173e+00	1.537771e+01
A	-10.301743	20.697375	-0.050090	-5.235689e-01	-6.104345e-02	-3.479612e-01	-1.608196e+00	5.828373e-01	-8.713626e+00
A	-7.878745	23.500464	0.933714	-3.485565e-01	-2.472298e-01	-7.430954e-02	-2.106349e+01	-1.935668e+01	-1.530019e+01
A	-5.599514	25.533744	2.659953	9.804338e-01	3.292813e-01	3.051525e-01	1.563861e+01	1.735410e+01	6.691421e+00
A	-4.125847	25.332795	6.065915	1.217705e-01	4.645667e-01	-3.034413e-01	-6.397732e+00	-3.350255e+00	1.495295e+01
W	-7.158455	24.412931	8.382046	-3.270520e-02	-3.401194e-01	7.451957e-01	1.444197e+01	4.685995e+00	-1.235607e+01
W	-9.681965	23.520191	10.977547	3.284868e-01	3.643243e-01	-2.794494e-01	-7.512106e+00	-5.367689e+00	1.404386e+01
W	-10.685894	22.113483	14.475504	-4.906755e-01	2.458784e-01	1.546998e-01	-8.264145e+00	-3.406419e+00	-1.698020e+01
P	-8.069196	23.775785	16.394404	6.600090e-01	6.108738e-01	-7.070715e-01	1.398091e+01	7.422837e+00	7.997427e+00
P	-8.894157	21.325641	19.168144	1.205955e-01	-2.144554e-01	2.128064e-01	6.508943e+00	-1.438893e+00	4.078815e+00
P	-5.604669	20.748148	21.129938	1.901902e-02	-2.992989e-01	-3.704123e-01	-5.733513e+00	1.584490e+00	-4.254307e+00
P	-2.643663	22.544824	19.544404	-5.854794e-01	-4.119713e-01	-8.978424e-02	-1.726533e+00	8.929460e+00	-2.146020e+01
P	-2.774686	24.009684	15.787482	1.641632e-01	-1.711235e-01	7.097143e-01	-1.511554e+00	-8.043123e+00	2.647257e+01
P	-1.115512	22.763679	12.654668	1.094620e+00	-1.232433e+00	-7.431326e-02	3.899084e+00	-1.260935e+00	-2.919381e+00
P	-0.621315	20.528926	15.688673	3.007222e-01	4.669265e-01	-4.323655e-01	-7.763951e+00	-5.563133e+00	-7.984972e+00
P	2.218950	22.155279	17.353003	3.903605e-01	4.528799e-01	-3.246104e-01	1.956392e+01	6.658471e+00	1.037754e+00
P	5.896827	21.996528	15.990845	1.297339e-01	4.272299e-01	-1.487796e-01	-1.057570e+01	1.043012e+00	4.048444e+00
P	3.991209	23.755637	13.224607	-7.579915e-01	4.541450e-02	1.018366e-01	-4.062921e+00	-1.237828e+00	-9.596996e-01
P	7.134047	24.943018	14.965808	-8.086985e-01	-1.813133e-02	3.682892e-01	-5.820299e+00	-2.198088e-01	4.184448e+00
P	10.538349	24.667186	13.472751	5.435247e-01	9.394425e-03	-4.807708e-02	5.714580e+00	-2.096384e+00	-2.026414e+00
P	14.308967	24.811549	13.871894	-2.857299e-01	-4.320414e-01	3.079262e-01	-6.443885e+00	-2.230040e+01	3.416013e+00
P	12.819565	21.141599	14.530283	7.490116e-03	-1.283223e-01	2.675437e-01	1.748577e+01	2.234190e+01	9.303476e-03
W	16.558104	21.510722	15.719512	-2.201202e-01	4.855447e-01	4.310204e-01	-1.433644e+01	-8.342181e-03	-4.390488e+00
W	15.911812	19.696307	12.445165	-4.758062e-01	-2.200434e-01	2.171533e-01	3.132057e+00	2.180669e+00	6.705143e+00
W	18.047805	19.725100	15.677814	6.900617e-02	4.373848e-01	-1.096529e-01	3.315803e+00	-2.089405e+01	-4.650239e+00
W	18.983325	15.826255	15.904726	-3.249404e-01	2.029858e-01	-2.724470e-01	-3.731927e+00	1.605759e+01	5.115446e+00