ITEM: TIMESTEP
400000
ITEM: NUMBER OF ATOMS
91
ITEM: BOX BOUNDS pp pp pp
0.0000000000000000e+00 5.4943600000000004e+01
0.0000000000000000e+00 5.1908299999999997e+01
0.0000000000000000e+00 5.0000000000000000e+01
ITEM: ATOMS id type x y z c_coord
4 1 40.6839 25.1104 15.5075 3
25 1 13.7656 21.4529 10.3759 4
43 1 39.4219 33.5885 16.1141 4
115 1 25.6846 16.1818 16.2929 4
202 1 26.0358 39.9983 5.94301 4
208 1 11.9823 22.3933 15.0516 3
265 1 20.8177 33.3749 25.424 4
280 1 39.1186 33.83 11.6943 4
295 1 35.1268 26.604 16.3981 4
307 1 33.4089 14.6851 6.24398 3
409 1 22.9096 19.4879 25.5592 4
415 1 18.6778 29.1415 6.0833 4
439 1 24.7112 43.478 17.9413 3
529 1 30.3208 37.0139 21.9992 4
592 1 40.0915 37.857 12.6624 2
604 1 13.1174 24.2629 10.9187 3
667 1 30.73 34.8952 24.1982 4
682 1 16.1855 27.7557 6.03896 4
685 1 21.5175 35.5543 23.8383 3
706 1 35.8811 41.9107 9.21117 4
730 1 37.9896 38.2451 10.5825 4
784 1 27.7702 15.7586 12.3777 4
958 1 27.3331 43.6572 11.2245 4
1000 1 33.2508 29.4251 18.9535 4
1048 1 33.3045 11.5599 10.6309 3
1132 1 12.8108 34.4956 10.9561 3
1150 1 23.7412 16.9873 18.6807 3
1189 1 26.6249 42.5311 16.0565 4
1201 1 15.8632 40.954 15.5897 3
1216 1 13.716 19.2712 6.62599 3
1258 1 40.7674 26.4609 8.79351 4
1279 1 33.1035 34.0131 6.18488 4
1366 1 16.1532 18.6306 19.2431 4
1435 1 35.9141 22.999 6.62602 4
1489 1 15.8157 33.6489 5.84754 4
1666 1 20.2075 30.4428 25.2167 3
1675 1 28.5693 28.6423 5.95402 4
1687 1 34.883 27.314 6.27369 3
1693 1 39.5205 32.2221 18.593 4
1714 1 36.4239 20.8892 20.9021 4
1717 1 11.9172 21.6227 6.12001 2
1720 1 14.4682 18.8067 11.1882 3
1732 1 35.038 36.0195 6.12639 3
1738 1 30.3827 40.2007 16.8611 4
1816 1 38.768 28.7482 17.2842 4
1828 1 13.5568 41.0426 9.87736 2
1846 1 17.1716 15.1468 7.58907 4
1915 1 29.0628 42.2639 6.36421 4
1948 1 17.0046 32.9572 19.1166 3
1960 1 30.7281 42.5367 15.3842 4
1978 1 27.9274 25.3877 27.4319 4
1993 1 33.7048 44.819 12.4357 3
2083 1 39.421 36.363 7.03673 2
2164 1 20.1304 20.5681 25.9312 3
2185 1 32.2799 18.9992 24.1891 3
2287 1 17.1729 25.2091 6.33635 3
2314 1 17.8873 16.7321 13.1465 3
2422 1 27.7882 33.6241 26.724 4
2458 1 14.0173 32.3318 15.6309 4
2524 1 23.8746 16.2943 11.226 4
2533 1 15.243 18.4114 16.7116 4
2563 1 25.1252 14.7166 13.1333 3
2587 1 37.1212 30.0598 21.6602 4
2593 1 14.2405 38.7343 8.4334 4
2602 1 38.6279 23.3527 6.51865 2
2647 1 33.2961 42.1955 14.3788 4
2683 1 17.9047 41.3617 8.96164 4
2725 1 13.236 23.9839 6.90647 3
2752 1 23.4569 41.2126 19.0625 4
2812 1 28.9105 44.1945 16.8529 2
2821 1 35.4877 16.4572 6.77251 4
2833 1 13.2685 21.6352 19.5056 3
2917 1 34.73 26.7499 26.7387 2
2950 1 37.4828 34.4811 6.26787 4
2968 1 31.9676 13.1657 13.3234 3
3070 1 36.8705 22.3001 14.6476 4
3178 1 34.2655 21.1048 22.9747 4
3196 1 38.4148 21.9089 19.2637 3
3304 1 13.7211 39.0482 14.3278 3
3310 1 22.9202 31.1668 24.2702 4
3331 1 25.5841 38.9565 20.0498 4
3346 1 13.0673 26.6767 6.20616 3
3358 1 20.8804 25.5881 26.6995 4
3382 1 14.8485 16.8443 7.3767 3
3451 1 25.2446 31.6194 20.4415 4
3493 1 27.643 37.1237 21.3991 4
3619 1 20.1051 41.2141 12.7398 4
3640 1 24.7978 29.5854 25.7335 4
3658 1 19.9013 14.6871 8.61325 4
3682 1 12.473 24.1272 20.1185 3
3754 1 14.0939 25.0233 22.2323 3
3784 1 13.1758 30.9787 7.51857 4
