ITEM: TIMESTEP
400000
ITEM: NUMBER OF ATOMS
440
ITEM: BOX BOUNDS pp pp pp
0.0000000000000000e+00 5.4943600000000004e+01
0.0000000000000000e+00 5.1908299999999997e+01
0.0000000000000000e+00 5.0000000000000000e+01
ITEM: ATOMS id type x y z c_coord
1 1 20.2192 30.3916 18.3095 6
4 1 40.6839 25.1104 15.5075 3
7 1 20.8305 24.1209 19.9342 6
19 1 34.1187 29.9247 24.3732 6
25 1 13.7656 21.4529 10.3759 4
31 1 34.6436 38.5466 6.65657 5
34 1 20.1341 34.7614 9.72516 8
37 1 32.8661 13.8667 8.93318 6
43 1 39.4219 33.5885 16.1141 4
58 1 28.9815 36.5212 18.8788 7
67 1 21.9402 32.41 9.61203 8
73 1 29.4026 42.0879 12.5365 5
88 1 20.1328 32.9264 7.25957 7
97 1 31.9159 27.1583 9.5163 7
100 1 27.9924 22.6916 15.456 5
109 1 34.2417 23.981 22.8352 5
115 1 25.6846 16.1818 16.2929 4
124 1 19.1671 23.0134 24.7978 7
151 1 31.6281 24.1152 23.3751 6
154 1 17.4311 18.392 15.3201 6
157 1 22.2909 31.9684 6.06676 7
163 1 31.3698 37.5755 17.7602 6
187 1 30.5445 19.8826 13.362 8
199 1 26.5841 32.4816 8.77725 6
202 1 26.0358 39.9983 5.94301 4
208 1 11.9823 22.3933 15.0516 3
226 1 25.8501 35.3627 22.7496 5
250 1 26.2188 26.1012 11.9355 9
253 1 24.7095 27.5287 19.4739 5
262 1 17.6549 36.3315 16.3245 7
265 1 20.8177 33.3749 25.424 4
268 1 21.5042 34.2602 19.7307 8
280 1 39.1186 33.83 11.6943 4
286 1 21.1888 25.0033 15.5565 10
295 1 35.1268 26.604 16.3981 4
304 1 26.4967 35.3372 6.01282 7
307 1 33.4089 14.6851 6.24398 3
331 1 31.3511 41.2043 10.8507 7
337 1 17.8646 22.7287 13.1885 8
346 1 25.9223 41.6236 10.6964 5
352 1 32.4672 28.3562 7.098 5
355 1 34.8075 21.3826 16.0971 6
361 1 33.2565 39.0922 14.2129 6
367 1 34.7799 21.3593 12.595 8
385 1 30.3979 31.8843 21.5757 7
394 1 31.6926 31.0908 25.924 6
403 1 22.3386 17.6995 13.2433 5
409 1 22.9096 19.4879 25.5592 4
412 1 28.0259 30.5346 13.2895 10
415 1 18.6778 29.1415 6.0833 4
418 1 31.143 38.3642 12.4513 8
430 1 31.1037 18.942 15.9589 9
439 1 24.7112 43.478 17.9413 3
457 1 26.5402 22.2464 7.05305 7
469 1 29.2405 38.5473 14.7689 7
472 1 31.4202 24.3074 12.7652 5
481 1 35.3094 32.2295 9.43641 5
484 1 17.6389 41.5062 13.4111 6
487 1 17.4531 30.3008 19.2918 9
520 1 15.2483 27.699 21.2695 5
529 1 30.3208 37.0139 21.9992 4
571 1 24.387 31.5848 14.3521 8
586 1 37.3219 30.5744 18.8789 5
592 1 40.0915 37.857 12.6624 2
598 1 30.4776 30.6977 7.10898 7
604 1 13.1174 24.2629 10.9187 3
619 1 19.7591 23.4004 17.3014 7
646 1 23.7011 29.4553 6.16285 5
658 1 34.5853 20.2166 18.7173 5
664 1 33.6317 27.4496 20.7742 6
667 1 30.73 34.8952 24.1982 4
673 1 12.6496 25.1103 13.4623 5
676 1 38.014 31.8342 9.59162 5
682 1 16.1855 27.7557 6.03896 4
685 1 21.5175 35.5543 23.8383 3
697 1 28.914 26.6842 9.76717 8
706 1 35.8811 41.9107 9.21117 4
718 1 30.3847 15.4235 13.7119 6
724 1 31.1452 16.9406 19.1275 6
730 1 37.9896 38.2451 10.5825 4
733 1 32.09 33.121 14.4806 7
736 1 36.5363 28.2169 12.2765 11
745 1 22.8598 27.3138 12.162 9
751 1 33.277 21.8192 6.3045 7
784 1 27.7702 15.7586 12.3777 4
802 1 35.8584 39.2091 9.15803 7
817 1 16.3152 34.9512 8.41948 6
823 1 18.3727 36.7959 12.8931 8
826 1 24.5208 23.1618 8.64402 12
829 1 31.6129 23.8626 6.49476 5
850 1 38.3727 35.1366 9.18628 5
859 1 32.3769 21.8012 13.7534 10
877 1 26.4601 30.2124 5.99955 6
889 1 17.6439 31.6213 6.52847 5
892 1 34.1258 16.447 10.3607 8
898 1 28.1914 31.1291 24.0189 9
901 1 18.8071 24.9524 10.7801 8
910 1 14.5516 29.3901 10.9191 8
916 1 16.7963 21.1426 22.9206 5
943 1 20.0782 26.5418 20.5522 6
955 1 37.6497 25.9916 17.5901 6
958 1 27.3331 43.6572 11.2245 4
961 1 27.2564 26.6543 7.36614 8
973 1 25.8276 25.8505 23.0814 7
994 1 14.8067 27.3057 13.0549 6
1000 1 33.2508 29.4251 18.9535 4
1003 1 24.8375 20.3146 6.25881 6
1042 1 25.1178 28.6888 13.3466 8
1045 1 29.4043 28.2189 13.8071 8
1048 1 33.3045 11.5599 10.6309 3
1057 1 40.2544 27.1702 11.3709 6
1063 1 35.4265 25.168 8.20246 9
1075 1 37.0355 31.7155 6.62171 5
1102 1 28.7698 25.6582 20.2985 6
1114 1 20.8645 36.8318 14.9675 13
1126 1 34.3746 27.771 10.7389 6
1129 1 27.5583 21.6527 9.51431 7
1132 1 12.8108 34.4956 10.9561 3
1147 1 21.2415 19.8726 11.5092 9
1150 1 23.7412 16.9873 18.6807 3
1156 1 22.7902 22.2296 14.5622 7
1159 1 23.8094 19.3637 8.51874 9
1165 1 21.2823 28.1735 6.06782 7
1171 1 39.1916 31.9493 13.8598 6
1177 1 14.3448 32.1363 10.8963 7
1183 1 15.8459 38.3457 12.1758 8
1189 1 26.6249 42.5311 16.0565 4
1195 1 20.7334 22.6339 22.0922 7
1201 1 15.8632 40.954 15.5897 3
1210 1 32.4049 35.9602 19.8726 7
1216 1 13.716 19.2712 6.62599 3
1225 1 18.719 28.8215 14.0244 9
1231 1 34.0429 31.376 6.51101 8
1234 1 18.1612 35.6176 6.18716 5
1240 1 37.5442 33.2586 20.349 5
1246 1 15.2233 22.9261 15.7494 7
1249 1 31.5532 18.2429 21.6593 5
1252 1 33.6312 31.9129 20.4443 8
1258 1 40.7674 26.4609 8.79351 4
1279 1 33.1035 34.0131 6.18488 4
1288 1 16.782 20.9341 16.8172 10
1315 1 32.807 23.238 16.0343 6
1318 1 35.0577 26.3402 24.0343 6
1321 1 27.4491 32.7774 6.18571 6
1327 1 32.278 26.0727 16.381 5
1336 1 15.2704 36.4537 14.4132 7
1342 1 28.0661 28.1613 19.7302 5
1354 1 22.1951 25.4111 6.42825 6
1366 1 16.1532 18.6306 19.2431 4
1369 1 18.9644 18.3225 11.1589 6
1384 1 26.7863 19.8887 14.6357 7
1387 1 28.2933 16.6529 8.02498 7
1393 1 16.5649 22.1888 10.2701 7
1408 1 28.1059 19.8983 11.7999 7
1411 1 23.9775 19.0803 20.4279 5
1414 1 30.5968 26.3984 6.25027 8
1429 1 23.6532 34.4179 6.08403 5
1432 1 24.616 23.3997 12.6668 9
1435 1 35.9141 22.999 6.62602 4
1450 1 32.023 28.254 23.1516 8
1453 1 22.0915 34.0848 15.4185 12
1468 1 21.034 37.267 12.0908 10
1471 1 21.6627 32.5876 17.5807 9
1474 1 34.9665 29.1013 15.1516 6
1486 1 31.0652 22.5359 17.9819 7
1489 1 15.8157 33.6489 5.84754 4
1492 1 32.5039 32.5658 23.6036 7
1498 1 26.6199 20.2478 20.9431 7
1501 1 21.3455 18.158 8.22993 9
1510 1 24.8294 21.5817 22.9705 8
1522 1 34.6907 32.7924 11.9693 6
1528 1 17.9656 20.1469 8.10709 8
1531 1 23.9847 33.8834 13.0014 6
1540 1 25.8217 35.6469 13.9725 7
1549 1 30.4786 33.1158 6.12376 7
1555 1 23.337 17.774 15.9235 5
1570 1 26.0065 29.2134 21.4419 7
1582 1 19.4412 16.5761 6.33173 5
1597 1 29.2151 40.0358 9.01148 8
1606 1 33.3404 38.8469 10.3335 9
1609 1 33.0586 33.2123 17.3657 7
1621 1 16.3018 20.4546 13.7746 7
1624 1 27.1006 22.8456 17.9839 8
1630 1 30.766 32.1272 9.55268 5
1645 1 33.2025 30.859 13.1046 6
1654 1 13.0064 26.6974 16.0167 5
1666 1 20.2075 30.4428 25.2167 3
1669 1 32.4175 35.559 15.9531 7
1675 1 28.5693 28.6423 5.95402 4
1687 1 34.883 27.314 6.27369 3
1690 1 24.1229 22.2879 25.4265 5
1693 1 39.5205 32.2221 18.593 4
1699 1 30.628 16.2634 16.3473 5
1714 1 36.4239 20.8892 20.9021 4
1717 1 11.9172 21.6227 6.12001 2
1720 1 14.4682 18.8067 11.1882 3
1726 1 31.8413 20.7553 9.97596 9
1732 1 35.038 36.0195 6.12639 3
1738 1 30.3827 40.2007 16.8611 4
1768 1 32.2577 36.2912 10.5736 7
1771 1 30.7593 18.2494 9.86474 11
1783 1 30.7284 33.4617 26.7462 5
1789 1 26.5012 28.1642 17.0997 6
1792 1 16.3356 30.6111 21.9183 6
1795 1 24.4732 32.0679 17.9048 6
1816 1 38.768 28.7482 17.2842 4
1825 1 17.4136 27.1851 9.9954 7
1828 1 13.5568 41.0426 9.87736 2
1831 1 24.0577 33.9406 8.80633 6
1846 1 17.1716 15.1468 7.58907 4
1870 1 20.6747 37.4478 9.42985 8
1891 1 28.3147 33.2321 10.7498 6
1897 1 28.5759 26.836 15.9729 7
1903 1 32.7052 28.5547 27.0787 5
1909 1 23.1203 24.9214 10.7994 9
1915 1 29.0628 42.2639 6.36421 4
1918 1 39.5212 35.3784 13.9215 5
1921 1 23.6149 24.6698 19.1511 6
1927 1 31.6217 28.7712 12.2305 6
1933 1 37.6887 25.1173 11.0492 8
1939 1 14.7964 26.2337 9.90593 6
1948 1 17.0046 32.9572 19.1166 3
1960 1 30.7281 42.5367 15.3842 4
1963 1 16.2348 40.7805 10.8633 6
1966 1 24.7185 23.8578 21.5873 6
1975 1 26.7304 39.3575 14.9028 8
1978 1 27.9274 25.3877 27.4319 4
1984 1 34.3846 41.4052 6.20497 5
1993 1 33.7048 44.819 12.4357 3
1999 1 25.4821 20.9767 11.3154 9
2011 1 36.3614 27.4936 21.7082 5
2023 1 27.3746 23.7086 23.3848 8
2038 1 28.1143 34.3433 13.4142 8
2041 1 31.7325 17.4741 12.5349 8
2056 1 14.0977 28.3145 8.12869 7
2074 1 30.3067 37.4032 7.97433 6
2077 1 36.2048 25.1401 14.217 8
2083 1 39.421 36.363 7.03673 2
2089 1 29.5056 29.2384 22.2582 6
2107 1 22.3863 20.369 22.5371 6
2134 1 20.4543 39.7979 15.0382 7
2143 1 21.4232 19.8104 6.07253 6
2146 1 19.5441 21.9221 9.40565 7
2164 1 20.1304 20.5681 25.9312 3
2185 1 32.2799 18.9992 24.1891 3
2191 1 27.723 19.1141 18.1156 7
2197 1 33.7696 19.0905 8.86605 8
2200 1 31.0882 18.3885 5.85083 5
2239 1 30.4565 22.166 8.1571 8
2245 1 31.0501 15.4919 9.96765 9
2254 1 28.2299 33.7962 23.8667 7
2275 1 16.7248 31.6962 15.1661 8
2287 1 17.1729 25.2091 6.33635 3
2311 1 29.5246 35.8658 10.2564 7
2314 1 17.8873 16.7321 13.1465 3
2317 1 22.3794 29.9182 15.1007 10
2320 1 34.2338 14.3087 12.0093 5
2326 1 33.7433 18.8654 6.11411 5
2344 1 36.3695 31.6651 13.9656 8
2347 1 18.9605 34.1846 13.5705 12
2350 1 22.9717 32.4093 21.6951 6
2356 1 19.0665 29.1212 9.11394 7
2371 1 21.242 35.8303 6.21207 7
2374 1 15.9219 20.7571 6.47089 5
2377 1 16.0491 28.8018 15.078 7
2380 1 16.0546 33.1149 12.9309 9
2389 1 23.9697 23.2712 17.0241 8
2401 1 25.1274 34.9616 17.9463 5
2410 1 17.8469 38.4852 9.20477 9
2413 1 34.3575 18.6765 12.2577 7
2416 1 22.9311 24.1519 23.7536 9
2419 1 20.243 21.228 13.675 6
2422 1 27.7882 33.6241 26.724 4
2437 1 21.7125 30.9927 12.0922 9
2443 1 30.9841 22.9398 20.6939 10
2449 1 29.4917 19.7189 7.7194 9
2455 1 17.9181 38.8417 14.9599 9
2458 1 14.0173 32.3318 15.6309 4
2473 1 21.296 34.4382 12.0799 9
2491 1 17.7358 27.2108 22.3034 8
2503 1 26.3258 30.6923 16.0481 7
2521 1 28.2622 23.0419 20.8754 8
2524 1 23.8746 16.2943 11.226 4
2530 1 28.0018 34.1007 18.6764 5
2533 1 15.243 18.4114 16.7116 4
2542 1 33.6978 42.7064 10.419 6
2545 1 37.0073 29.0164 6.49445 5
2554 1 24.3449 36.6057 15.992 9
2560 1 18.9679 30.1289 22.8315 5
2563 1 25.1252 14.7166 13.1333 3
2581 1 32.9203 24.6642 8.71871 10
2584 1 32.6936 20.7518 20.6102 9
2587 1 37.1212 30.0598 21.6602 4
2590 1 25.5736 24.3663 26.7271 6
2593 1 14.2405 38.7343 8.4334 4
2596 1 23.0574 29.7146 9.21075 8
2602 1 38.6279 23.3527 6.51865 2
2608 1 29.5132 29.8181 10.6612 9
2614 1 22.0856 39.6686 17.1031 7
2623 1 15.6839 23.1889 7.82453 7
2629 1 30.1316 31.3585 15.1047 8
2644 1 20.7805 40.3462 7.99408 7
2647 1 33.2961 42.1955 14.3788 4
2653 1 33.5168 17.6426 17.8224 5
2677 1 23.4917 38.4547 13.797 10
2683 1 17.9047 41.3617 8.96164 4
2689 1 29.4237 19.919 20.9706 9
2692 1 35.7221 23.2 10.6882 7
2710 1 24.5307 25.3728 15.4891 9
2716 1 35.5483 41.7461 12.929 6
2719 1 31.0266 28.8772 17.1261 6
2725 1 13.236 23.9839 6.90647 3
2737 1 21.3261 27.6657 9.78416 8
2740 1 12.865 24.256 16.9815 6
2752 1 23.4569 41.2126 19.0625 4
2758 1 31.5456 42.2984 7.4642 6
2764 1 18.5531 25.4918 13.8734 7
2812 1 28.9105 44.1945 16.8529 2
2815 1 30.2669 20.0001 18.2337 7
2818 1 19.2744 19.9239 22.6784 6
2821 1 35.4877 16.4572 6.77251 4
2824 1 19.9085 34.376 22.0783 6
2833 1 13.2685 21.6352 19.5056 3
2839 1 38.6536 26.4771 13.6361 6
2842 1 17.8557 26.6193 18.3743 8
2860 1 22.6793 38.0543 7.6107 9
2872 1 21.1616 16.578 10.5101 6
2875 1 35.513 32.1096 22.5117 6
2878 1 32.2121 39.3184 7.77412 8
2890 1 29.4569 35.7924 6.03015 5
2905 1 18.9503 31.3588 10.9586 10
2917 1 34.73 26.7499 26.7387 2
2932 1 33.2221 35.0198 12.7962 8
2944 1 23.393 40.7414 7.11042 5
2950 1 37.4828 34.4811 6.26787 4
2959 1 23.1225 21.4214 10.1808 9
2965 1 28.1768 24.4802 6.1328 5
2968 1 31.9676 13.1657 13.3234 3
2971 1 33.8316 19.0322 15.3163 9
2974 1 28.1981 32.9009 16.1878 5
2986 1 22.7671 26.776 17.2594 9
2998 1 18.858 38.3913 6.73994 7
3001 1 17.7607 33.5044 10.1577 8
3004 1 27.8712 39.0843 17.8875 6
3013 1 27.5342 23.8103 11.0594 8
3019 1 20.409 25.1597 23.4264 8
3025 1 35.1526 31.012 17.3604 6
3043 1 35.5622 21.1188 8.46493 5
3052 1 19.9585 35.6662 17.957 7
3061 1 16.4787 18.1161 9.39386 6
3064 1 24.2572 20.2799 15.7432 5
3067 1 15.5004 28.4558 18.7476 6
3070 1 36.8705 22.3001 14.6476 4
3073 1 28.0444 17.5826 15.764 7
3088 1 37.9171 27.1435 8.90571 8
3091 1 37.4669 25.0997 20.1579 5
3097 1 20.1711 27.5711 17.4876 8
3100 1 34.5383 25.4258 12.0798 9
3103 1 13.5376 34.3069 13.7898 5
3115 1 30.7602 33.5561 19.2999 7
3133 1 23.3138 35.0352 21.8365 6
3139 1 27.2754 40.0143 12.3911 9
3145 1 27.3328 37.2915 11.3094 7
3148 1 19.4749 20.5595 17.4981 6
3151 1 30.0406 25.1991 17.7905 10
3154 1 21.2021 24.8787 9.00647 9
3172 1 21.607 40.0868 10.753 7
3178 1 34.2655 21.1048 22.9747 4
3193 1 38.0406 29.565 14.7043 6
3196 1 38.4148 21.9089 19.2637 3
3202 1 15.9623 21.9418 19.2635 8
3205 1 33.0162 33.802 9.12768 8
3211 1 34.8532 36.1668 14.9227 5
3217 1 30.6752 27.129 25.6288 6
3220 1 20.5694 31.5497 21.0486 7
3223 1 26.6969 28.539 10.7729 8
3247 1 15.7244 31.212 8.32791 8
3304 1 13.7211 39.0482 14.3278 3
3310 1 22.9202 31.1668 24.2702 4
3313 1 23.9355 36.9427 19.7196 7
3319 1 21.1014 27.5464 14.3596 9
3331 1 25.5841 38.9565 20.0498 4
3334 1 20.2484 18.9551 15.2552 7
3337 1 23.0995 22.4607 6.33694 9
3340 1 18.8641 19.2226 5.88656 5
3346 1 13.0673 26.6767 6.20616 3
3349 1 34.5669 24.7545 20.2322 5
3358 1 20.8804 25.5881 26.6995 4
3364 1 27.2613 30.711 26.7265 5
3382 1 14.8485 16.8443 7.3767 3
3403 1 25.3422 18.3594 10.4682 6
3412 1 30.157 21.424 23.491 9
3418 1 22.2617 36.8728 17.7097 8
3436 1 28.2483 17.5875 10.5606 7
3448 1 19.8672 23.8388 6.26912 5
3451 1 25.2446 31.6194 20.4415 4
3457 1 27.7944 32.9836 21.0622 7
3466 1 30.9171 15.8724 6.93768 6
3472 1 20.1459 31.3198 14.3656 10
3475 1 29.1073 26.001 12.5732 9
3484 1 24.5978 25.8143 7.77535 6
3493 1 27.643 37.1237 21.3991 4
3496 1 27.1015 25.0715 14.5383 8
3517 1 32.8989 23.1138 10.9447 8
3520 1 26.6249 37.6001 7.51415 10
3532 1 16.8285 24.0039 22.5284 7
3544 1 21.245 24.6504 12.8157 11
3550 1 25.738 29.9851 8.5903 6
3598 1 24.9837 20.9399 18.3597 6
3619 1 20.1051 41.2141 12.7398 4
3622 1 23.7563 26.7863 25.4607 6
3628 1 24.7672 36.6075 8.95632 8
3634 1 18.2459 20.4957 20.1848 8
3640 1 24.7978 29.5854 25.7335 4
3655 1 13.8816 29.5044 16.5591 5
3658 1 19.9013 14.6871 8.61325 4
3664 1 17.5679 24.2131 19.7553 9
3667 1 38.3618 23.2904 16.8802 6
3670 1 31.373 25.6277 21.1617 8
3673 1 14.8718 36.6499 10.1311 5
3679 1 27.4005 18.6127 6.22873 5
3682 1 12.473 24.1272 20.1185 3
3694 1 38.4243 29.1606 10.5111 5
3700 1 35.0835 34.4863 20.1781 5
3724 1 24.2785 39.5851 9.8142 9
3727 1 28.5135 28.0578 26.5759 5
3733 1 24.5824 37.4103 11.519 8
3736 1 36.9506 34.2292 15.2858 5
3742 1 18.8139 32.848 17.0865 10
3745 1 17.2259 29.4917 11.79 8
3748 1 35.4466 38.8991 12.3165 6
3754 1 14.0939 25.0233 22.2323 3
3757 1 38.6861 26.0664 6.38599 5
3760 1 30.1912 36.0665 13.9564 8
3763 1 24.3655 40.6516 15.342 6
3766 1 27.1698 41.46 8.16724 8
3769 1 26.7938 28.4663 24.4063 8
3778 1 17.6067 24.7812 16.2399 9
3784 1 13.1758 30.9787 7.51857 4
3793 1 29.5544 24.6955 25.0076 6
