ITEM: TIMESTEP
400000
ITEM: NUMBER OF ATOMS
1716
ITEM: BOX BOUNDS pp pp pp
0.0000000000000000e+00 5.4943600000000004e+01
0.0000000000000000e+00 5.1908299999999997e+01
0.0000000000000000e+00 5.0000000000000000e+01
ITEM: ATOMS id type x y z c_coord
1 1 20.2192 30.3916 18.3095 6
2 2 20.8987 30.9642 17.9536 9
3 2 20.5377 29.5055 18.1377 9
4 1 40.6839 25.1104 15.5075 3
5 2 41.0832 25.3238 16.3509 3
6 2 40.0654 24.4074 15.7058 4
7 1 20.8305 24.1209 19.9342 6
8 2 20.7992 23.4733 20.6383 9
9 2 21.7572 24.1772 19.7009 7
19 1 34.1187 29.9247 24.3732 6
20 2 34.4509 30.732 23.9806 6
21 2 34.7822 29.6808 25.0185 7
25 1 13.7656 21.4529 10.3759 4
26 2 13.417 22.2669 10.7395 4
27 2 14.6609 21.6702 10.1161 5
31 1 34.6436 38.5466 6.65657 5
32 2 34.8103 39.3282 6.12969 4
33 2 33.8038 38.7188 7.08241 6
34 1 20.1341 34.7614 9.72516 8
35 2 20.4623 34.4358 8.88698 8
36 2 20.6221 34.2658 10.3828 10
37 1 32.8661 13.8667 8.93318 6
38 2 32.8455 14.0521 7.99432 6
39 2 32.2152 14.4592 9.30915 6
43 1 39.4219 33.5885 16.1141 4
44 2 39.7498 34.3677 16.5631 4
45 2 38.5236 33.8121 15.8705 5
58 1 28.9815 36.5212 18.8788 7
59 2 28.7624 36.5794 19.8087 9
60 2 28.4378 37.1896 18.4618 6
67 1 21.9402 32.41 9.61203 8
68 2 22.7504 32.8724 9.39759 10
69 2 21.4718 32.3475 8.77961 8
73 1 29.4026 42.0879 12.5365 5
74 2 30.2339 42.0171 12.0672 8
75 2 29.6527 42.1672 13.457 7
88 1 20.1328 32.9264 7.25957 7
89 2 19.3164 32.4562 7.09015 11
90 2 20.7647 32.5348 6.65663 6
97 1 31.9159 27.1583 9.5163 7
98 2 30.966 27.2762 9.50893 8
99 2 32.0466 26.2465 9.25588 10
100 1 27.9924 22.6916 15.456 5
101 2 27.9267 21.7945 15.1287 5
102 2 27.6455 22.6479 16.347 8
109 1 34.2417 23.981 22.8352 5
110 2 34.4715 23.0601 22.9594 6
111 2 34.3894 24.1415 21.9031 10
115 1 25.6846 16.1818 16.2929 4
116 2 25.6072 15.6912 15.4746 5
117 2 24.8528 16.6487 16.3723 5
124 1 19.1671 23.0134 24.7978 7
125 2 19.6129 23.7904 24.4605 6
126 2 18.3351 22.99 24.3252 6
151 1 31.6281 24.1152 23.3751 6
152 2 32.5826 24.1871 23.3684 8
153 2 31.4526 23.2227 23.0766 8
154 1 17.4311 18.392 15.3201 6
155 2 17.1011 19.1385 14.8199 7
156 2 18.3764 18.534 15.3677 7
157 1 22.2909 31.9684 6.06676 7
158 2 23.0592 31.4046 5.97603 8
159 2 22.6081 32.8438 5.84463 6
163 1 31.3698 37.5755 17.7602 6
164 2 30.5312 37.3817 18.1792 8
165 2 32.0217 37.1594 18.3242 5
187 1 30.5445 19.8826 13.362 8
188 2 31.0725 19.354 12.7636 9
189 2 29.7797 20.1375 12.8458 8
199 1 26.5841 32.4816 8.77725 6
200 2 26.1768 31.6153 8.78719 7
201 2 26.9681 32.5562 7.90361 7
202 1 26.0358 39.9983 5.94301 4
203 2 26.6628 40.0015 5.21975 4
204 2 26.1839 39.1624 6.38524 7
208 1 11.9823 22.3933 15.0516 3
209 2 12.8707 22.2919 14.7102 3
210 2 12.0708 23.022 15.768 4
226 1 25.8501 35.3627 22.7496 5
227 2 26.3378 34.8808 23.4175 5
228 2 26.5192 35.85 22.2689 7
250 1 26.2188 26.1012 11.9355 9
251 2 25.3816 26.5501 12.0528 9
252 2 26.5977 26.0667 12.8138 11
253 1 24.7095 27.5287 19.4739 5
254 2 25.1762 27.5017 18.6386 6
255 2 24.3988 26.6327 19.6042 7
262 1 17.6549 36.3315 16.3245 7
263 2 16.8094 36.2193 15.8901 5
264 2 18.2102 35.6483 15.9488 7
265 1 20.8177 33.3749 25.424 4
266 2 20.938 34.3027 25.2217 4
267 2 21.5554 32.9387 24.9978 5
268 1 21.5042 34.2602 19.7307 8
269 2 22.2475 34.6052 20.2254 10
270 2 21.065 35.037 19.3844 9
280 1 39.1186 33.83 11.6943 4
281 2 39.3964 34.3558 12.4443 6
282 2 38.9118 34.4716 11.0147 6
286 1 21.1888 25.0033 15.5565 10
287 2 21.9945 25.2982 15.9811 9
288 2 20.945 24.2082 16.0304 12
295 1 35.1268 26.604 16.3981 4
296 2 35.0283 27.3175 15.7676 6
297 2 34.2306 26.3258 16.5875 6
304 1 26.4967 35.3372 6.01282 7
305 2 26.3686 36.1101 6.56285 7
306 2 25.6105 35.0407 5.80554 6
307 1 33.4089 14.6851 6.24398 3
308 2 34.1866 15.236 6.33366 4
309 2 33.6111 14.1016 5.51261 3
331 1 31.3511 41.2043 10.8507 7
332 2 31.7411 40.3587 11.0727 7
333 2 32.0996 41.7805 10.6958 9
337 1 17.8646 22.7287 13.1885 8
338 2 18.5975 22.1582 13.42 8
339 2 18.1145 23.5891 13.5254 9
346 1 25.9223 41.6236 10.6964 5
347 2 26.2504 42.4604 11.0256 5
348 2 26.2645 41.566 9.80428 5
352 1 32.4672 28.3562 7.098 5
353 2 32.197 27.9822 7.93667 7
354 2 33.3261 27.9692 6.92839 9
355 1 34.8075 21.3826 16.0971 6
356 2 34.1257 22.0463 15.9933 7
357 2 35.5844 21.7716 15.6955 8
361 1 33.2565 39.0922 14.2129 6
362 2 32.4635 38.9541 13.6949 9
363 2 33.972 39.0125 13.582 6
367 1 34.7799 21.3593 12.595 8
368 2 34.6934 20.4394 12.345 9
369 2 33.9161 21.599 12.9306 12
385 1 30.3979 31.8843 21.5757 7
386 2 30.2883 30.9334 21.5716 7
387 2 29.505 32.2288 21.5577 8
394 1 31.6926 31.0908 25.924 6
395 2 32.0251 31.4274 25.0918 8
396 2 32.175 30.2759 26.0632 6
403 1 22.3386 17.6995 13.2433 5
404 2 22.8511 17.0441 12.77 6
405 2 21.9749 18.2605 12.5583 8
409 1 22.9096 19.4879 25.5592 4
410 2 22.8088 19.659 24.6228 4
411 2 22.0157 19.4925 25.9016 3
412 1 28.0259 30.5346 13.2895 10
413 2 28.6952 31.0274 13.7643 7
414 2 27.336 30.3831 13.9354 9
415 1 18.6778 29.1415 6.0833 4
416 2 18.4175 30.0618 6.11957 6
417 2 17.8583 28.6563 6.17926 6
418 1 31.143 38.3642 12.4513 8
419 2 30.2746 38.6039 12.7749 10
420 2 31.244 37.4438 12.6942 8
430 1 31.1037 18.942 15.9589 9
431 2 30.6307 19.0897 15.1399 9
432 2 32.0266 18.9348 15.705 8
439 1 24.7112 43.478 17.9413 3
440 2 25.2417 43.2021 17.1938 4
441 2 24.8854 44.4154 18.0262 2
457 1 26.5402 22.2464 7.05305 7
458 2 26.8776 22.921 6.4638 7
459 2 26.313 21.5164 6.47698 8
469 1 29.2405 38.5473 14.7689 7
470 2 28.3151 38.7595 14.8911 7
471 2 29.6933 39.049 15.4469 8
472 1 31.4202 24.3074 12.7652 5
473 2 31.7813 23.4733 13.0654 7
474 2 32.0133 24.9683 13.1222 7
481 1 35.3094 32.2295 9.43641 5
482 2 34.9427 31.6569 8.76279 6
483 2 36.2388 32.0019 9.46495 7
484 1 17.6389 41.5062 13.4111 6
485 2 16.9389 41.807 13.9905 4
486 2 17.2258 41.4395 12.5502 6
487 1 17.4531 30.3008 19.2918 9
488 2 17.2327 31.2274 19.1975 6
489 2 18.3988 30.2632 19.1485 9
520 1 15.2483 27.699 21.2695 5
521 2 15.4485 28.4641 21.8085 5
522 2 15.1522 28.0481 20.3834 6
529 1 30.3208 37.0139 21.9992 4
530 2 30.7171 36.5193 22.7165 4
531 2 30.9705 36.9806 21.297 6
571 1 24.387 31.5848 14.3521 8
572 2 23.6113 31.1042 14.6411 9
573 2 25.084 31.2905 14.9383 7
586 1 37.3219 30.5744 18.8789 5
587 2 37.8543 31.3676 18.8192 6
588 2 37.908 29.8705 18.6012 6
592 1 40.0915 37.857 12.6624 2
593 2 40.2579 38.5463 13.3053 2
594 2 39.6768 38.3091 11.9277 2
598 1 30.4776 30.6977 7.10898 7
599 2 31.1697 30.0427 7.01887 7
600 2 30.7067 31.1814 7.90254 7
604 1 13.1174 24.2629 10.9187 3
605 2 13.9019 24.7642 10.6964 7
606 2 12.6664 24.14 10.0835 5
619 1 19.7591 23.4004 17.3014 7
620 2 19.7862 23.67 18.2195 8
621 2 19.5137 22.4756 17.33 8
646 1 23.7011 29.4553 6.16285 5
647 2 23.655 28.8371 6.89217 8
648 2 24.6359 29.6317 6.05654 5
658 1 34.5853 20.2166 18.7173 5
659 2 34.265 19.3964 18.342 6
660 2 34.7839 20.766 17.959 6
664 1 33.6317 27.4496 20.7742 6
665 2 34.5482 27.6006 21.0054 8
666 2 33.4574 28.0698 20.0662 7
667 1 30.73 34.8952 24.1982 4
668 2 30.8469 34.7384 25.1352 6
669 2 29.8721 34.5212 23.9974 8
673 1 12.6496 25.1103 13.4623 5
674 2 11.9394 24.5649 13.8007 4
675 2 12.7768 24.808 12.5631 5
676 1 38.014 31.8342 9.59162 5
677 2 38.2576 32.3627 10.3516 7
678 2 38.2196 30.9354 9.84848 5
682 1 16.1855 27.7557 6.03896 4
683 2 15.5081 27.7436 5.36283 4
684 2 16.3727 26.8323 6.20778 5
685 1 21.5175 35.5543 23.8383 3
686 2 20.9049 35.0596 23.294 5
687 2 21.0653 36.3782 24.0204 3
697 1 28.914 26.6842 9.76717 8
698 2 28.6188 27.5941 9.80205 8
699 2 28.8734 26.3838 10.6751 10
706 1 35.8811 41.9107 9.21117 4
707 2 36.6866 42.3465 9.48936 3
708 2 36.1306 40.9932 9.10014 8
718 1 30.3847 15.4235 13.7119 6
719 2 30.813 14.5677 13.6915 6
720 2 30.2325 15.5936 14.6414 6
724 1 31.1452 16.9406 19.1275 6
725 2 30.6709 17.7141 18.8228 7
726 2 31.2613 17.0847 20.0667 6
730 1 37.9896 38.2451 10.5825 4
731 2 37.3561 38.5906 9.95352 5
732 2 38.1518 37.3478 10.2914 6
733 1 32.09 33.121 14.4806 7
734 2 32.3675 33.9122 14.019 8
735 2 32.5414 33.1641 15.3236 8
736 1 36.5363 28.2169 12.2765 11
737 2 36.0465 28.4927 13.0512 10
738 2 35.8798 28.1701 11.5816 7
745 1 22.8598 27.3138 12.162 9
746 2 22.9751 26.415 11.8538 8
747 2 22.2947 27.2336 12.9303 9
751 1 33.277 21.8192 6.3045 7
752 2 32.537 22.4066 6.15047 5
753 2 34.0059 22.2229 5.83348 5
784 1 27.7702 15.7586 12.3777 4
785 2 28.3291 15.3909 13.0622 4
786 2 26.9064 15.8278 12.7845 7
802 1 35.8584 39.2091 9.15803 7
803 2 35.6869 39.1838 8.21665 7
804 2 34.9897 39.2251 9.55986 7
817 1 16.3152 34.9512 8.41948 6
818 2 16.8195 34.322 8.93515 9
819 2 15.9914 35.5829 9.06163 7
823 1 18.3727 36.7959 12.8931 8
824 2 19.1011 37.0982 12.3505 9
825 2 18.4687 35.8438 12.9148 11
826 1 24.5208 23.1618 8.64402 12
827 2 24.6836 24.0974 8.76414 11
828 2 25.1854 22.8815 8.01477 10
829 1 31.6129 23.8626 6.49476 5
830 2 31.0166 24.5996 6.36208 5
831 2 31.1164 23.246 7.03278 7
850 1 38.3727 35.1366 9.18628 5
851 2 39.1411 35.4837 8.73326 5
852 2 37.8628 34.707 8.49943 7
859 1 32.3769 21.8012 13.7534 10
860 2 31.6243 21.2308 13.5968 10
861 2 32.2789 22.0834 14.6628 9
877 1 26.4601 30.2124 5.99955 6
878 2 26.9122 31.055 5.95718 6
879 2 26.3538 30.0438 6.9357 6
889 1 17.6439 31.6213 6.52847 5
890 2 16.9853 31.4551 7.20276 9
891 2 17.2765 32.3331 6.0045 6
892 1 34.1258 16.447 10.3607 8
893 2 33.6888 16.0269 9.62002 10
894 2 34.1318 15.779 11.0462 6
898 1 28.1914 31.1291 24.0189 9
899 2 28.0854 30.8862 24.9388 8
900 2 28.6895 30.407 23.636 10
901 1 18.8071 24.9524 10.7801 8
902 2 18.5364 24.0466 10.9301 7
903 2 19.6182 24.8801 10.2768 7
910 1 14.5516 29.3901 10.9191 8
911 2 15.4889 29.575 10.9794 8
912 2 14.3982 29.2292 9.98811 8
916 1 16.7963 21.1426 22.9206 5
917 2 16.6807 22.0845 22.7951 7
918 2 15.9733 20.8499 23.3121 3
943 1 20.0782 26.5418 20.5522 6
944 2 20.3256 25.6472 20.3181 9
945 2 19.8747 26.9611 19.7161 7
955 1 37.6497 25.9916 17.5901 6
956 2 37.761 25.0783 17.3264 8
957 2 36.7419 26.1971 17.3664 6
958 1 27.3331 43.6572 11.2245 4
959 2 27.2376 44.1642 12.0308 2
960 2 28.1845 43.2283 11.3102 5
961 1 27.2564 26.6543 7.36614 8
962 2 27.5155 27.5039 7.00918 8
963 2 27.6213 26.6444 8.25103 9
973 1 25.8276 25.8505 23.0814 7
974 2 26.265 26.6031 23.4796 5
975 2 26.4729 25.1451 23.1291 10
994 1 14.8067 27.3057 13.0549 6
995 2 14.2419 26.5423 12.9347 6
996 2 14.6012 27.8752 12.3135 6
1000 1 33.2508 29.4251 18.9535 4
1001 2 32.3648 29.5092 18.6011 5
1002 2 33.7802 30.0132 18.415 7
1003 1 24.8375 20.3146 6.25881 6
1004 2 24.6452 19.8767 7.08803 9
1005 2 24.3064 21.1107 6.27913 6
1042 1 25.1178 28.6888 13.3466 8
1043 2 24.5882 29.2636 13.8991 9
1044 2 24.4807 28.2226 12.8052 8
1045 1 29.4043 28.2189 13.8071 8
1046 2 30.2472 28.6059 13.5703 8
1047 2 28.7622 28.8983 13.6016 9
1048 1 33.3045 11.5599 10.6309 3
1049 2 32.9571 10.7155 10.3436 2
1050 2 33.2535 12.1172 9.85441 3
1057 1 40.2544 27.1702 11.3709 6
1058 2 39.8857 27.0203 12.2415 8
1059 2 39.7632 27.9164 11.0275 6
1063 1 35.4265 25.168 8.20246 9
1064 2 35.6301 24.882 9.09291 10
1065 2 34.4895 24.9987 8.10441 10
1075 1 37.0355 31.7155 6.62171 5
1076 2 36.9132 30.7674 6.67136 5
1077 2 37.65 31.9154 7.32791 6
1102 1 28.7698 25.6582 20.2985 6
1103 2 28.4785 24.7792 20.5407 8
1104 2 29.6442 25.7349 20.6803 7
1114 1 20.8645 36.8318 14.9675 13
1115 2 20.9676 37.7827 14.9312 11
1116 2 20.1602 36.6428 14.3476 11
1126 1 34.3746 27.771 10.7389 6
1127 2 33.5846 27.6857 10.2052 7
1128 2 34.4161 26.9553 11.2382 8
1129 1 27.5583 21.6527 9.51431 7
1130 2 27.6418 22.4686 10.0078 6
1131 2 27.2155 21.9217 8.66205 9
1132 1 12.8108 34.4956 10.9561 3
1133 2 12.3129 34.7057 10.1661 3
1134 2 13.2917 33.6988 10.7319 4
1147 1 21.2415 19.8726 11.5092 9
1148 2 20.3194 19.7419 11.2881 8
1149 2 21.5591 20.4951 10.855 9
1150 1 23.7412 16.9873 18.6807 3
1151 2 23.3925 17.1177 17.7989 4
1152 2 23.2108 16.2792 19.0462 3
1156 1 22.7902 22.2296 14.5622 7
1157 2 21.9441 21.9802 14.1907 8
1158 2 23.2305 22.7057 13.8582 10
1159 1 23.8094 19.3637 8.51874 9
1160 2 23.4808 20.1887 8.87622 9
1161 2 24.4349 19.0512 9.17248 6
1165 1 21.2823 28.1735 6.06782 7
1166 2 20.4099 28.5589 5.98572 5
1167 2 21.8644 28.8053 5.64561 5
1171 1 39.1916 31.9493 13.8598 6
1172 2 39.5735 32.6635 14.3699 6
1173 2 39.319 32.2109 12.9478 7
1177 1 14.3448 32.1363 10.8963 7
1178 2 14.8704 32.3923 11.6542 7
1179 2 14.2655 31.1853 10.9693 6
1183 1 15.8459 38.3457 12.1758 8
1184 2 16.7489 38.0371 12.2509 8
1185 2 15.89 39.0662 11.5472 10
1189 1 26.6249 42.5311 16.0565 4
1190 2 27.1773 43.3128 16.0589 4
1191 2 27.1768 41.8485 15.6747 10
1195 1 20.7334 22.6339 22.0922 7
1196 2 20.8546 23.4831 22.5168 8
1197 2 19.8844 22.326 22.4095 11
1201 1 15.8632 40.954 15.5897 3
1202 2 16.1884 41.2805 16.4286 3
1203 2 16.5744 40.4096 15.2519 5
1210 1 32.4049 35.9602 19.8726 7
1211 2 31.9851 35.1421 19.6072 8
1212 2 33.2875 35.7018 20.1384 6
1216 1 13.716 19.2712 6.62599 3
1217 2 13.4182 19.2909 7.53551 6
1218 2 14.4759 19.8529 6.60969 6
1225 1 18.719 28.8215 14.0244 9
1226 2 19.1544 29.5288 14.5002 9
1227 2 18.0033 28.5507 14.5994 8
1231 1 34.0429 31.376 6.51101 8
1232 2 34.9317 31.1068 6.27928 6
1233 2 33.4766 30.7631 6.04192 7
1234 1 18.1612 35.6176 6.18716 5
1235 2 17.517 35.2493 5.58254 6
1236 2 17.8106 35.4266 7.05706 9
1240 1 37.5442 33.2586 20.349 5
1241 2 37.4399 32.5851 21.0212 6
1242 2 38.4568 33.1809 20.0711 5
1246 1 15.2233 22.9261 15.7494 7
1247 2 15.8522 23.6466 15.7103 7
1248 2 14.5241 23.2483 16.3182 8
1249 1 31.5532 18.2429 21.6593 5
1250 2 32.053 18.9086 21.1868 9
1251 2 30.6474 18.5497 21.6198 6
1252 1 33.6312 31.9129 20.4443 8
1253 2 33.1031 31.1795 20.1285 9
1254 2 33.0926 32.3223 21.1215 8
1258 1 40.7674 26.4609 8.79351 4
1259 2 41.6528 26.1012 8.73962 3
1260 2 40.6836 26.7576 9.6997 5
1279 1 33.1035 34.0131 6.18488 4
1280 2 33.6952 34.7554 6.30816 6
1281 2 33.6694 33.2432 6.24212 6
1288 1 16.782 20.9341 16.8172 10
1289 2 16.1722 21.5542 16.4174 8
1290 2 16.2487 20.1625 17.0083 8
1315 1 32.807 23.238 16.0343 6
1316 2 32.8182 24.1949 16.0552 8
1317 2 32.1998 22.9899 16.7315 6
1318 1 35.0577 26.3402 24.0343 6
1319 2 35.4234 26.8418 23.3055 8
1320 2 35.0329 25.4378 23.7159 6
1321 1 27.4491 32.7774 6.18571 6
1322 2 27.1524 33.6618 5.97108 6
1323 2 28.3538 32.7457 5.87433 6
1327 1 32.278 26.0727 16.381 5
1328 2 32.1841 27.0211 16.4693 7
1329 2 31.5089 25.7132 16.8232 6
1336 1 15.2704 36.4537 14.4132 7
1337 2 14.6621 37.1569 14.6407 5
1338 2 15.5951 36.689 13.5441 8
1342 1 28.0661 28.1613 19.7302 5
1343 2 27.1956 28.2372 20.121 6
1344 2 28.3073 27.2438 19.8578 8
1354 1 22.1951 25.4111 6.42825 6
1355 2 23.0976 25.4923 6.73678 6
1356 2 21.8368 26.2959 6.49912 6
1366 1 16.1532 18.6306 19.2431 4
1367 2 15.5742 18.2593 19.9087 3
1368 2 15.6135 18.6756 18.4537 6
1369 1 18.9644 18.3225 11.1589 6
1370 2 18.5714 17.8106 11.8657 7
1371 2 18.41 18.1469 10.3985 6
1384 1 26.7863 19.8887 14.6357 7
1385 2 27.1057 19.0317 14.9181 7
1386 2 26.8767 19.8764 13.6828 7
1387 1 28.2933 16.6529 8.02498 7
1388 2 28.9951 16.1634 7.59611 7
1389 2 28.0001 17.2806 7.36442 6
1393 1 16.5649 22.1888 10.2701 7
1394 2 17.5206 22.2224 10.3128 6
1395 2 16.2792 22.3403 11.171 8
1408 1 28.1059 19.8983 11.7999 7
1409 2 28.374 19.063 11.4168 10
1410 2 28.0207 20.4891 11.0517 10
1411 1 23.9775 19.0803 20.4279 5
1412 2 24.0628 19.8197 19.826 5
1413 2 23.8529 18.3207 19.8588 4
1414 1 30.5968 26.3984 6.25027 8
1415 2 31.2124 27.1245 6.35062 7
1416 2 29.7339 26.8126 6.25753 7
1429 1 23.6532 34.4179 6.08403 5
1430 2 23.6791 34.0873 6.98196 8
1431 2 22.9697 35.088 6.09466 7
1432 1 24.616 23.3997 12.6668 9
1433 2 25.1258 24.1025 13.0698 9
1434 2 24.1216 23.8311 11.97 10
1435 1 35.9141 22.999 6.62602 4
1436 2 35.8051 22.222 7.17412 5
1437 2 35.5981 23.7216 7.1684 8
1450 1 32.023 28.254 23.1516 8
1451 2 32.5756 28.8511 23.6559 8
1452 2 32.6275 27.816 22.5524 9
1453 1 22.0915 34.0848 15.4185 12
1454 2 21.7096 34.9293 15.1794 9
1455 2 22.8516 33.9939 14.8438 10
1468 1 21.034 37.267 12.0908 10
1469 2 20.8893 37.4389 11.1603 9
1470 2 21.6409 37.9526 12.37 9
1471 1 21.6627 32.5876 17.5807 9
1472 2 21.7846 33.1407 16.8091 11
1473 2 21.7884 33.1793 18.3225 10
1474 1 34.9665 29.1013 15.1516 6
1475 2 35.138 29.5199 15.9951 8
1476 2 34.6178 29.8031 14.6019 8
1486 1 31.0652 22.5359 17.9819 7
1487 2 30.3751 23.139 17.7055 9
1488 2 30.6202 21.6953 18.0898 11
1489 1 15.8157 33.6489 5.84754 4
1490 2 14.9619 33.3217 5.56432 5
1491 2 15.6621 33.9879 6.72943 5
1492 1 32.5039 32.5658 23.6036 7
1493 2 32.2996 33.4389 23.9388 6
1494 2 31.7362 32.3214 23.0869 10
1498 1 26.6199 20.2478 20.9431 7
1499 2 26.3483 21.0411 21.4046 8
1500 2 25.9175 19.6197 21.1115 6
1501 1 21.3455 18.158 8.22993 9
1502 2 22.2005 18.4857 8.50885 8
1503 2 21.1427 18.6589 7.43986 6
1510 1 24.8294 21.5817 22.9705 8
1511 2 24.7571 21.6851 23.9193 8
1512 2 23.9763 21.2421 22.7003 8
1522 1 34.6907 32.7924 11.9693 6
1523 2 34.2627 31.9782 12.2341 6
1524 2 35.0129 32.6177 11.0849 6
1528 1 17.9656 20.1469 8.10709 8
1529 2 17.6567 19.3468 8.53215 9
1530 2 18.504 19.8388 7.37796 7
1531 1 23.9847 33.8834 13.0014 6
1532 2 24.6834 34.3822 13.4248 7
1533 2 24.0653 33.0015 13.3646 6
1540 1 25.8217 35.6469 13.9725 7
1541 2 26.104 36.4984 13.6387 9
1542 2 26.5741 35.0723 13.831 8
1549 1 30.4786 33.1158 6.12376 7
1550 2 30.5451 32.2193 6.45247 7
1551 2 31.3846 33.3811 5.96539 7
1555 1 23.337 17.774 15.9235 5
1556 2 23.0012 17.6919 15.0308 5
1557 2 23.4416 18.7163 16.0549 8
1570 1 26.0065 29.2134 21.4419 7
1571 2 26.5437 29.212 22.2341 8
1572 2 25.4867 28.4119 21.503 5
1582 1 19.4412 16.5761 6.33173 5
1583 2 20.1228 16.0863 6.79176 5
1584 2 18.6461 16.0588 6.45979 5
1597 1 29.2151 40.0358 9.01148 8
1598 2 29.645 39.206 8.80458 9
1599 2 29.7653 40.4287 9.68907 10
1606 1 33.3404 38.8469 10.3335 9
1607 2 32.9823 39.3387 9.59458 12
1608 2 32.7615 38.0896 10.4208 10
1609 1 33.0586 33.2123 17.3657 7
1610 2 32.5613 33.0658 18.1705 8
1611 2 32.8527 34.1136 17.1174 8
1621 1 16.3018 20.4546 13.7746 7
1622 2 16.7446 21.277 13.9841 6
1623 2 16.3012 20.4193 12.8181 6
1624 1 27.1006 22.8456 17.9839 8
1625 2 26.2496 22.4117 18.0461 8
1626 2 27.487 22.742 18.8535 11
1630 1 30.766 32.1272 9.55268 5
1631 2 30.146 32.5296 10.1608 6
1632 2 31.4932 32.7478 9.50556 9
1645 1 33.2025 30.859 13.1046 6
1646 2 32.4843 30.2823 12.8439 8
1647 2 32.772 31.6664 13.3857 7
1654 1 13.0064 26.6974 16.0167 5
1655 2 13.0401 26.5613 15.0698 5
1656 2 13.5697 27.4559 16.1703 6
1666 1 20.2075 30.4428 25.2167 3
1667 2 20.2615 31.26 25.7121 3
1668 2 20.246 29.7558 25.8822 3
1669 1 32.4175 35.559 15.9531 7
1670 2 32.0343 36.3918 16.2286 9
1671 2 33.3031 35.7848 15.6685 8
1675 1 28.5693 28.6423 5.95402 4
1676 2 27.8267 29.1196 5.58412 6
1677 2 29.2618 29.2986 6.03161 6
1687 1 34.883 27.314 6.27369 3
1688 2 35.1212 26.7772 5.51774 4
1689 2 35.0277 26.7433 7.02846 8
1690 1 24.1229 22.2879 25.4265 5
1691 2 23.8879 21.4346 25.7912 6
1692 2 24.7322 22.6615 26.0633 5
1693 1 39.5205 32.2221 18.593 4
1694 2 39.9824 31.3994 18.4316 4
1695 2 39.3489 32.5761 17.7204 6
1699 1 30.628 16.2634 16.3473 5
1700 2 30.9091 16.2065 17.2605 6
1701 2 30.9164 17.1301 16.061 9
1714 1 36.4239 20.8892 20.9021 4
1715 2 35.8736 20.8801 21.6852 5
1716 2 35.8519 20.5714 20.2034 4
1717 1 11.9172 21.6227 6.12001 2
1718 2 12.5822 20.9353 6.08075 3
1719 2 11.4956 21.5982 5.26102 2
1720 1 14.4682 18.8067 11.1882 3
1721 2 14.049 19.6344 10.9528 4
1722 2 13.7704 18.2903 11.5914 3
1726 1 31.8413 20.7553 9.97596 9
1727 2 32.5352 20.2946 9.50425 10
1728 2 32.2908 21.4709 10.4254 12
1732 1 35.038 36.0195 6.12639 3
1733 2 34.8135 36.8922 6.44939 5
1734 2 34.7391 36.0159 5.21709 3
1738 1 30.3827 40.2007 16.8611 4
1739 2 29.6353 40.0971 17.45 6
1740 2 30.975 39.4868 17.0971 6
1768 1 32.2577 36.2912 10.5736 7
1769 2 31.323 36.0962 10.6422 7
1770 2 32.6328 35.5211 10.1466 8
1771 1 30.7593 18.2494 9.86474 11
1772 2 30.9064 19.1506 10.1521 9
1773 2 29.979 17.9694 10.3431 9
1783 1 30.7284 33.4617 26.7462 5
1784 2 29.8558 33.3665 26.3646 7
1785 2 31.0714 32.569 26.7867 4
1789 1 26.5012 28.1642 17.0997 6
1790 2 26.904 28.3713 17.9429 5
1791 2 27.1491 27.6208 16.6511 8
1792 1 16.3356 30.6111 21.9183 6
1793 2 17.1447 30.4887 22.4151 5
1794 2 16.6209 30.6743 21.0068 6
1795 1 24.4732 32.0679 17.9048 6
1796 2 23.5272 31.9496 17.82 10
1797 2 24.6673 31.8119 18.8065 6
1816 1 38.768 28.7482 17.2842 4
1817 2 38.3276 28.9144 16.4507 7
1818 2 38.5751 27.8311 17.4788 6
1825 1 17.4136 27.1851 9.9954 7
1826 2 17.7575 26.3648 10.3491 7
1827 2 17.3435 27.7633 10.755 8
1828 1 13.5568 41.0426 9.87736 2
1829 2 13.4344 40.2292 9.38797 3
1830 2 13.0366 41.6898 9.40115 2
1831 1 24.0577 33.9406 8.80633 6
1832 2 24.0089 34.8933 8.88499 9
1833 2 24.9782 33.7333 8.9676 8
1846 1 17.1716 15.1468 7.58907 4
1847 2 16.8129 15.5538 8.37769 4
1848 2 18.0227 14.804 7.86172 4
1870 1 20.6747 37.4478 9.42985 8
1871 2 20.4704 36.5131 9.45933 8
1872 2 19.8477 37.8668 9.19183 8
1891 1 28.3147 33.2321 10.7498 6
1892 2 27.8664 33.1569 11.5922 6
1893 2 27.6836 32.8993 10.1116 9
1897 1 28.5759 26.836 15.9729 7
1898 2 28.1169 26.1191 15.5352 7
1899 2 28.9912 27.3245 15.2623 8
1903 1 32.7052 28.5547 27.0787 5
1904 2 32.4927 28.6901 28.0022 3
1905 2 33.395 27.8911 27.086 5
1909 1 23.1203 24.9214 10.7994 9
1910 2 22.4302 24.6976 11.4239 8
1911 2 22.6976 24.8608 9.94283 10
1915 1 29.0628 42.2639 6.36421 4
1916 2 28.5096 42.1054 7.12906 4
1917 2 28.8094 43.1359 6.06132 2
1918 1 39.5212 35.3784 13.9215 5
1919 2 39.724 36.2076 13.4885 5
1920 2 38.5716 35.396 14.0407 6
1921 1 23.6149 24.6698 19.1511 6
1922 2 24.0285 24.204 19.8779 7
1923 2 23.8061 24.1328 18.3821 9
1927 1 31.6217 28.7712 12.2305 6
1928 2 31.9483 27.9371 11.8931 9
1929 2 30.8058 28.9204 11.7527 9
1933 1 37.6887 25.1173 11.0492 8
1934 2 37.7599 25.4823 11.9312 8
1935 2 37.7357 25.8781 10.4701 10
1939 1 14.7964 26.2337 9.90593 6
1940 2 14.4307 26.4332 9.04403 8
1941 2 15.6782 26.6052 9.88423 8
1948 1 17.0046 32.9572 19.1166 3
1949 2 17.7329 32.887 18.4995 5
1950 2 16.9547 33.8904 19.3239 4
1960 1 30.7281 42.5367 15.3842 4
1961 2 31.6337 42.6826 15.1109 4
1962 2 30.7671 41.7564 15.9372 5
1963 1 16.2348 40.7805 10.8633 6
1964 2 15.4216 40.9846 10.4015 6
1965 2 16.9273 41.0221 10.2482 6
1966 1 24.7185 23.8578 21.5873 6
1967 2 24.8434 23.1246 22.1898 9
1968 2 25.2197 24.5752 21.9752 7
1975 1 26.7304 39.3575 14.9028 8
1976 2 27.0559 39.5155 14.0167 8
1977 2 25.8716 39.78 14.9219 7
1978 1 27.9274 25.3877 27.4319 4
1979 2 28.2718 25.0943 28.2754 3
1980 2 28.5172 25.0015 26.7844 5
1984 1 34.3846 41.4052 6.20497 5
1985 2 33.4416 41.5154 6.08287 4
1986 2 34.5523 41.7341 7.08817 6
1993 1 33.7048 44.819 12.4357 3
1994 2 33.4065 44.2407 13.1377 4
1995 2 33.802 45.6743 12.8542 2
1999 1 25.4821 20.9767 11.3154 9
2000 2 26.0611 21.3065 10.6283 9
2001 2 25.386 21.7114 11.9213 9
2011 1 36.3614 27.4936 21.7082 5
2012 2 36.6071 28.4017 21.8846 7
2013 2 37.1954 27.0346 21.6077 5
2023 1 27.3746 23.7086 23.3848 8
2024 2 27.3804 22.8202 23.7414 9
2025 2 28.1053 24.1469 23.8208 8
2038 1 28.1143 34.3433 13.4142 8
2039 2 28.878 34.8996 13.5672 8
2040 2 28.2178 33.6186 14.0309 7
2041 1 31.7325 17.4741 12.5349 8
2042 2 31.2856 16.7481 12.9701 12
2043 2 31.5179 17.3671 11.6083 9
2056 1 14.0977 28.3145 8.12869 7
2057 2 13.5087 27.7316 7.64969 6
2058 2 14.917 28.287 7.63451 7
2074 1 30.3067 37.4032 7.97433 6
2075 2 30.1613 36.7525 7.28748 7
2076 2 30.3189 36.8963 8.78623 8
2077 1 36.2048 25.1401 14.217 8
2078 2 35.6696 25.492 14.9283 10
2079 2 36.9125 25.7758 14.112 10
2083 1 39.421 36.363 7.03673 2
2084 2 39.5144 37.1986 6.57916 2
2085 2 38.7589 35.8875 6.53512 3
2089 1 29.5056 29.2384 22.2582 6
2090 2 30.2578 28.6994 22.5027 8
2091 2 29.1067 28.7739 21.5224 8
2107 1 22.3863 20.369 22.5371 6
2108 2 22.2688 19.8856 21.7193 5
2109 2 21.8683 21.1657 22.4214 9
2134 1 20.4543 39.7979 15.0382 7
2135 2 20.2989 40.1463 14.1602 8
2136 2 19.5825 39.5789 15.3671 8
2143 1 21.4232 19.8104 6.07253 6
2144 2 22.0778 19.4376 5.48205 6
2145 2 21.6659 20.7332 6.148 6
2146 1 19.5441 21.9221 9.40565 7
2147 2 19.0515 21.2108 8.9963 7
2148 2 20.398 21.9024 8.97355 9
2164 1 20.1304 20.5681 25.9312 3
2165 2 20.099 21.3029 25.3186 5
2166 2 19.7039 20.897 26.7225 2
2185 1 32.2799 18.9992 24.1891 3
2186 2 32.0266 18.5081 23.4074 5
2187 2 32.755 18.3657 24.7269 2
2191 1 27.723 19.1141 18.1156 7
2192 2 27.2989 18.4149 18.6131 8
2193 2 27.7249 18.7987 17.2119 7
2197 1 33.7696 19.0905 8.86605 8
2198 2 33.8575 18.2687 9.34891 9
2199 2 33.6351 18.8216 7.95727 8
2200 1 31.0882 18.3885 5.85083 5
2201 2 30.463 18.8647 6.39743 7
2202 2 30.5757 18.1 5.0956 5
2239 1 30.4565 22.166 8.1571 8
2240 2 29.6232 22.2201 8.62471 7
2241 2 31.0234 21.6555 8.73528 9
2245 1 31.0501 15.4919 9.96765 9
2246 2 30.1494 15.1756 9.89856 8
2247 2 31.1238 16.1576 9.28383 8
2254 1 28.2299 33.7962 23.8667 7
2255 2 28.3483 32.8466 23.8872 8
2256 2 27.8737 34.0122 24.7285 7
2275 1 16.7248 31.6962 15.1661 8
2276 2 17.264 32.3234 15.6479 7
2277 2 15.8553 31.776 15.5583 7
2287 1 17.1729 25.2091 6.33635 3
2288 2 18.0068 24.8851 5.99602 3
2289 2 16.6598 24.4191 6.50589 5
2311 1 29.5246 35.8658 10.2564 7
2312 2 28.7613 36.3363 10.5914 8
2313 2 29.2473 34.9502 10.225 7
2314 1 17.8873 16.7321 13.1465 3
2315 2 17.6529 17.3003 13.8803 5
2316 2 17.3859 15.9302 13.2941 2
2317 1 22.3794 29.9182 15.1007 10
2318 2 21.6328 30.5103 15.0099 8
2319 2 22.0178 29.0482 14.9312 9
2320 1 34.2338 14.3087 12.0093 5
2321 2 35.0468 14.0574 12.4477 3
2322 2 34.0211 13.5608 11.4511 5
2326 1 33.7433 18.8654 6.11411 5
2327 2 32.8276 18.6831 5.90328 6
2328 2 33.7737 19.812 6.25317 6
2344 1 36.3695 31.6651 13.9656 8
2345 2 37.2333 32.0771 13.9439 7
2346 2 35.9682 31.9051 13.1304 9
2347 1 18.9605 34.1846 13.5705 12
2348 2 19.6977 34.0899 12.9673 11
2349 2 18.2123 33.8258 13.0932 8
2350 1 22.9717 32.4093 21.6951 6
2351 2 22.0636 32.2581 21.4335 7
2352 2 23.0529 33.362 21.7408 8
2356 1 19.0665 29.1212 9.11394 7
2357 2 18.9301 29.1462 8.16684 8
2358 2 18.3791 28.5406 9.44022 7
2371 1 21.242 35.8303 6.21207 7
2372 2 21.5003 36.74 6.36012 5
2373 2 20.287 35.8387 6.27507 7
2374 1 15.9219 20.7571 6.47089 5
2375 2 16.2098 20.8538 5.5632 4
2376 2 16.7028 20.4638 6.94049 6
2377 1 16.0491 28.8018 15.078 7
2378 2 15.4437 28.4562 14.422 7
2379 2 16.1096 29.7363 14.88 7
2380 1 16.0546 33.1149 12.9309 9
2381 2 15.1788 33.3956 13.1964 8
2382 2 16.3282 32.5033 13.6145 9
2389 1 23.9697 23.2712 17.0241 8
2390 2 23.4682 22.8514 16.3253 9
2391 2 24.3133 22.544 17.5431 6
2401 1 25.1274 34.9616 17.9463 5
2402 2 24.7738 34.0839 17.8025 10
2403 2 26.0699 34.8274 18.0457 7
2410 1 17.8469 38.4852 9.20477 9
2411 2 17.8275 39.438 9.2949 7
2412 2 17.9251 38.335 8.26268 9
2413 1 34.3575 18.6765 12.2577 7
2414 2 34.706 17.8694 11.879 6
2415 2 33.4074 18.5639 12.2297 9
2416 1 22.9311 24.1519 23.7536 9
2417 2 23.5234 24.0904 23.0043 10
2418 2 23.2049 23.4422 24.3348 10
2419 1 20.243 21.228 13.675 6
2420 2 20.2441 20.4701 14.2596 9
2421 2 20.5561 20.8856 12.8377 9
2422 1 27.7882 33.6241 26.724 4
2423 2 27.4695 32.7232 26.7792 4
2424 2 28.28 33.7549 27.5347 3
2437 1 21.7125 30.9927 12.0922 9
2438 2 21.8298 31.5501 11.3229 8
2439 2 22.5372 30.513 12.1689 11
2443 1 30.9841 22.9398 20.6939 10
2444 2 31.248 23.8418 20.876 10
2445 2 30.7914 22.9308 19.7563 9
2449 1 29.4917 19.7189 7.7194 9
2450 2 29.965 20.5484 7.7845 9
2451 2 29.7361 19.2404 8.51163 10
2455 1 17.9181 38.8417 14.9599 9
2456 2 17.7936 37.9977 15.3941 7
2457 2 17.8549 38.6426 14.0258 10
2458 1 14.0173 32.3318 15.6309 4
2459 2 13.6629 32.5751 16.4861 3
2460 2 13.6082 32.9435 15.0187 5
2473 1 21.296 34.4382 12.0799 9
2474 2 22.2138 34.3532 12.3382 9
2475 2 21.0979 35.3668 12.2002 8
2491 1 17.7358 27.2108 22.3034 8
2492 2 16.8551 27.4161 21.9894 10
2493 2 18.2647 27.1445 21.5083 9
2503 1 26.3258 30.6923 16.0481 7
2504 2 26.2927 29.7566 16.2472 7
2505 2 25.7404 31.0949 16.6895 6
2521 1 28.2622 23.0419 20.8754 8
2522 2 29.1796 22.7687 20.8772 11
2523 2 28.0697 23.2424 21.7914 12
2524 1 23.8746 16.2943 11.226 4
2525 2 24.4025 17.0271 10.9091 7
2526 2 23.0073 16.4427 10.849 7
2530 1 28.0018 34.1007 18.6764 5
2531 2 28.4087 34.9668 18.6978 6
2532 2 28.2075 33.7179 19.5293 8
2533 1 15.243 18.4114 16.7116 4
2534 2 14.6306 17.837 16.2519 4
2535 2 16.0729 18.2972 16.2486 5
2542 1 33.6978 42.7064 10.419 6
2543 2 33.9965 43.4688 10.9145 5
2544 2 34.465 42.4303 9.9176 8
2545 1 37.0073 29.0164 6.49445 5
2546 2 36.1275 28.6688 6.64068 7
2547 2 37.5428 28.2445 6.31077 4
2554 1 24.3449 36.6057 15.992 9
2555 2 24.7602 36.0421 15.3392 8
2556 2 24.8218 36.4263 16.8022 7
2560 1 18.9679 30.1289 22.8315 5
2561 2 18.9584 29.1748 22.7554 6
2562 2 19.3869 30.2981 23.6754 6
2563 1 25.1252 14.7166 13.1333 3
2564 2 24.6156 15.2112 12.4916 4
2565 2 25.2593 13.8611 12.7253 2
2581 1 32.9203 24.6642 8.71871 10
2582 2 32.8884 24.0943 9.487 10
2583 2 32.4485 24.1802 8.041 9
2584 1 32.6936 20.7518 20.6102 9
2585 2 33.3946 20.8335 19.9636 8
2586 2 32.1081 21.4857 20.4234 9
2587 1 37.1212 30.0598 21.6602 4
2588 2 36.3424 30.5902 21.8287 6
2589 2 37.2494 30.1157 20.7133 6
2590 1 25.5736 24.3663 26.7271 6
2591 2 26.4354 24.7645 26.8498 7
2592 2 24.9909 25.105 26.5509 5
2593 1 14.2405 38.7343 8.4334 4
2594 2 15.1658 38.9063 8.6083 6
2595 2 14.0535 37.9237 8.90679 5
2596 1 23.0574 29.7146 9.21075 8
2597 2 22.5974 28.9464 9.54919 8
2598 2 22.4465 30.439 9.34584 10
2602 1 38.6279 23.3527 6.51865 2
2603 2 38.816 23.0439 7.40496 3
2604 2 37.7122 23.1161 6.37138 4
2608 1 29.5132 29.8181 10.6612 9
2609 2 28.6901 30.0741 11.0775 9
2610 2 29.9621 30.6456 10.4881 6
2614 1 22.0856 39.6686 17.1031 7
2615 2 21.4739 39.6957 16.3672 7
2616 2 21.9765 38.7928 17.4736 9
2623 1 15.6839 23.1889 7.82453 7
2624 2 16.0835 22.9845 8.66999 10
2625 2 15.9233 22.4525 7.26176 7
2629 1 30.1316 31.3585 15.1047 8
2630 2 30.8821 31.9385 14.9756 7
2631 2 29.5175 31.8736 15.628 6
2644 1 20.7805 40.3462 7.99408 7
2645 2 21.6203 40.4142 7.53992 6
2646 2 20.452 39.4775 7.76248 7
2647 1 33.2961 42.1955 14.3788 4
2648 2 32.8965 41.3264 14.3439 6
2649 2 34.2151 42.0463 14.1562 6
2653 1 33.5168 17.6426 17.8224 5
2654 2 33.6163 17.594 16.8715 5
2655 2 32.5871 17.4739 17.9753 7
2677 1 23.4917 38.4547 13.797 10
2678 2 23.5901 39.2585 14.3074 8
2679 2 23.5471 37.7513 14.4439 10
2683 1 17.9047 41.3617 8.96164 4
2684 2 18.8205 41.3944 8.68542 5
2685 2 17.4702 42.0301 8.43189 3
2689 1 29.4237 19.919 20.9706 9