LAMMPS (2 Aug 2023 - Update 1)
Reading data file ...
  orthogonal box = (0 0 0) to (150 150 100)
  3 by 3 by 1 MPI processor grid
  reading atoms ...
  3801 atoms
  scanning bonds ...
  2 = max bonds/atom
  scanning angles ...
  1 = max angles/atom
  reading bonds ...
  2534 bonds
  reading angles ...
  1267 angles
Finding 1-2 1-3 1-4 neighbors ...
  special bond factors lj:    0        0        0       
  special bond factors coul:  0        0        0       
     2 = max # of 1-2 neighbors
     1 = max # of 1-3 neighbors
     1 = max # of 1-4 neighbors
     2 = max # of special neighbors
  special bonds CPU = 0.000 seconds
  read_data CPU = 0.020 seconds
3801 atoms in group water
1267 atoms in group oxygen
WARNING: Ignoring 'compress yes' for molecular system (../delete_atoms.cpp:140)
Deleted 2481 atoms, new total = 1320
Deleted 1654 bonds, new total = 880
Deleted 827 angles, new total = 440
Displacing atoms ...
Reading data file ...
  orthogonal box = (0 0 0) to (150 150 100)
  3 by 3 by 1 MPI processor grid
  reading atoms ...
  396 atoms
Finding 1-2 1-3 1-4 neighbors ...
  special bond factors lj:    0        0        0       
  special bond factors coul:  0        0        0       
     2 = max # of 1-2 neighbors
     1 = max # of 1-3 neighbors
     1 = max # of 1-4 neighbors
     2 = max # of special neighbors
  special bonds CPU = 0.000 seconds
  read_data CPU = 0.001 seconds
396 atoms in group gold
Changing box ...
  orthogonal box = (0 0 0) to (54.9436 150 100)
  orthogonal box = (0 0 0) to (54.9436 51.9083 100)
  orthogonal box = (0 0 0) to (54.9436 51.9083 50)
System init for write_data ...
Setting atom values ...
  440 settings made for charge
Setting atom values ...
  880 settings made for charge
  create bodies CPU = 0.000 seconds
  440 rigid bodies with 1320 atoms
  0.95730378 = max distance from body owner to body atom
WARNING: Communication cutoff 0 is shorter than a bond length based estimate of 5.4358. This may lead to errors. (../comm.cpp:723)
WARNING: Increasing communication cutoff to 25.1118 for TIP4P pair style (../pair_tip4p_cut.cpp:441)
Generated 0 of 3 mixed pair_coeff terms from geometric mixing rule
Neighbor list info ...
  update: every = 10 steps, delay = 0 steps, check = yes
  max neighbors/atom: 5000, page size: 100000
  master list distance cutoff = 24.3092
  ghost atom cutoff = 25.1118
  binsize = 12.1546, bins = 5 5 5
  4 neighbor lists, perpetual/occasional/extra = 3 1 0
  (1) pair lj/smooth/linear, perpetual, trim from (4)
      attributes: half, newton on, cut 14
      pair build: trim
      stencil: none
      bin: none
  (2) pair tip4p/cut, perpetual, skip from (4)
      attributes: half, newton on
      pair build: skip
      stencil: none
      bin: none
  (3) compute coord/atom, occasional
      attributes: full, newton on
      pair build: full/bin
      stencil: full/bin/3d
      bin: standard
  (4) neighbor class addition, perpetual
      attributes: half, newton on
      pair build: half/bin/newton
      stencil: half/bin/3d
      bin: standard
Setting up Verlet run ...
  Unit style    : metal
  Current step  : 0
  Time step     : 0.001
Per MPI rank memory allocation (min/avg/max) = 16.28 | 17.22 | 20.6 Mbytes
     Time           Temp         c_Twater        PotEng         KinEng         TotEng       Ndanger  
 0              0              0             -203.4657       0             -203.4657               0 
 1              258.75923      375.06276     -123.00623      42.645251     -80.360976              0 
 2              249.79714      362.14667     -162.76155      41.168238     -121.59331              0 
 3              252.7181       366.37051     -128.43138      41.649632     -86.781752              0 
 4              252.91567      366.66129     -143.3132       41.682193     -101.63101              0 
 5              244.72591      354.67339     -203.86088      40.332466     -163.52841              0 
 6              260.95948      377.93201     -163.86676      43.007866     -120.85889              0 
 7              253.10523      366.81384     -154.97969      41.713433     -113.26626              0 
 8              247.49022      358.64348     -167.55279      40.788044     -126.76474              0 
 9              243.67073      353.23197     -207.63847      40.158565     -167.47991              0 
 10             254.90617      369.50522     -162.4921       42.010241     -120.48186              0 
 11             253.4701       367.38916     -121.06994      41.773566     -79.296378              0 
 12             253.7627       367.49488     -130.30287      41.82179      -88.481079              0 
 13             249.95077      361.9934      -180.90886      41.193557     -139.7153               0 
 14             245.07019      355.03259     -155.38463      40.389206     -114.99542              0 
 15             266.92343      386.5861      -151.38295      43.990766     -107.39219              0 
 16             260.61949      377.82748     -179.80562      42.951834     -136.85378              0 
 17             257.94929      372.73213     -168.96803      42.511767     -126.45626              0 
 18             250.48469      363.23419     -126.23983      41.281552     -84.958274              0 
 19             243.73854      353.34586     -130.96486      40.169741     -90.795123              0 
 20             256.31285      371.31686     -185.82697      42.242071     -143.5849               0 
 21             254.24101      368.63588     -180.78843      41.900617     -138.88781              0 
 22             241.63086      349.74589     -176.07298      39.82238      -136.2506               0 
 23             247.81616      359.41531     -128.82245      40.84176      -87.980689              0 
 24             260.24254      377.42556     -88.532787      42.88971      -45.643077              0 
 25             240.36002      348.4963      -156.43534      39.612938     -116.8224               0 
 26             253.45008      367.06914     -187.82929      41.770267     -146.05902              0 
 27             243.70618      353.46281     -208.29983      40.164407     -168.13542              0 
 28             249.15562      361.16167     -261.1224       41.062511     -220.05989              0 
 29             247.93721      358.91212     -192.38006      40.86171      -151.51835              0 
 30             258.71028      374.93888     -131.34189      42.637184     -88.704709              0 
 31             242.6421       351.2727      -136.72013      39.98904      -96.731085              0 
 32             252.29882      365.87487     -102.66124      41.580532     -61.080703              0 
 33             258.65365      374.66447     -202.78336      42.62785      -160.1555               0 
 34             248.84623      360.55432     -130.45354      41.011523     -89.442018              0 
 35             246.47222      357.31919     -126.64138      40.620269     -86.021108              0 
 36             235.25011      340.82897     -132.13588      38.77079      -93.365085              0 
 37             254.83062      369.61726     -206.88255      41.997789     -164.88476              0 
 38             248.78837      360.46162     -152.29591      41.001986     -111.29392              0 
 39             238.88595      346.05142     -101.0499       39.370002     -61.679895              0 
 40             244.39022      353.99708     -145.66677      40.277142     -105.38963              0 
 41             234.51179      339.4257      -122.23049      38.64911      -83.581383              0 
 42             245.40393      355.04496     -213.10341      40.444208     -172.6592               0 
 43             257.58296      373.21411     -152.1526       42.451394     -109.7012               0 
 44             246.86399      357.89439     -149.0697       40.684836     -108.38487              0 
 45             248.50508      360.22646     -166.58045      40.955298     -125.62515              0 
 46             256.978        372.53634     -168.67078      42.351693     -126.31909              0 
 47             254.92009      369.17262     -116.79342      42.012535     -74.780889              0 
 48             238.13872      345.17575     -99.389257      39.246853     -60.142404              0 
 49             237.76308      344.6284      -97.267789      39.184945     -58.082845              0 
 50             242.64019      351.67862     -149.95875      39.988725     -109.97002              0 
 51             246.06455      356.54787     -197.59938      40.553082     -157.04629              0 
 52             235.77288      341.60854     -186.50677      38.856947     -147.64982              0 
 53             239.23151      346.07885     -145.21294      39.426951     -105.78599              0 
 54             244.77716      354.52444     -219.75188      40.340913     -179.41096              0 
 55             254.45626      368.4872      -209.80795      41.936092     -167.87186              0 
 56             252.12323      365.4694      -208.56876      41.551593     -167.01717              0 
 57             246.15182      356.94444     -172.82721      40.567466     -132.25975              0 
 58             249.09914      361.23712     -168.62831      41.053204     -127.57511              0 
 59             241.90045      350.69378     -116.41982      39.866811     -76.553009              0 
 60             233.38849      338.44652     -171.44122      38.463983     -132.97724              0 
 61             240.74804      348.48399     -133.09984      39.676887     -93.422954              0 
 62             244.57745      354.46884     -204.36849      40.307999     -164.06049              0 
 63             236.54693      342.91755     -137.5524       38.984515     -98.567886              0 
 64             255.26887      370.10013     -151.04711      42.070016     -108.97709              0 
 65             235.58168      340.8816      -133.03476      38.825436     -94.209321              0 
 66             238.51382      345.76213     -161.03185      39.308672     -121.72318              0 
 67             250.56148      363.3606      -90.70442       41.294207     -49.410213              0 
 68             234.00304      339.18302     -198.31878      38.565265     -159.75352              0 
 69             243.03424      352.20165     -169.71013      40.053668     -129.65646              0 
 70             244.72102      353.85925     -174.88577      40.33166      -134.55411              0 
 71             234.27998      339.42239     -161.39134      38.610907     -122.78043              0 
 72             241.87         350.62308     -208.17893      39.861792     -168.31714              0 
 73             243.14949      352.19876     -203.86947      40.072661     -163.79681              0 
 74             241.72447      350.35716     -187.84425      39.837808     -148.00644              0 
 75             240.24622      347.26649     -208.50078      39.594183     -168.90659              0 
 76             238.69862      345.49566     -225.58181      39.339128     -186.24268              0 
 77             234.29087      339.83703     -198.44886      38.612701     -159.83616              0 
 78             241.9043       350.30978     -164.90073      39.867445     -125.03328              0 
 79             235.72174      341.79636     -139.27061      38.848519     -100.42209              0 
 80             245.78407      356.15355     -173.40357      40.506858     -132.89671              0 
 81             251.23112      364.14577     -207.81425      41.404568     -166.40968              0 
 82             236.34431      342.46968     -163.78488      38.951122     -124.83376              0 
 83             242.68476      351.37646     -166.55295      39.996071     -126.55688              0 
 84             239.64609      347.44474     -213.2957       39.495278     -173.80042              0 
 85             240.77448      349.01989     -149.53292      39.681243     -109.85167              0 
 86             240.19425      348.37558     -153.3738       39.585618     -113.78818              0 
 87             240.98993      349.39168     -151.36501      39.716752     -111.64826              0 
 88             241.26285      349.63695     -192.05446      39.761731     -152.29273              0 
 89             240.88437      348.62501     -72.660365      39.699355     -32.96101               0 
 90             248.15725      359.18676     -153.96831      40.897973     -113.07034              0 
 91             231.51592      335.78507     -201.77088      38.155371     -163.61551              0 
 92             235.07964      340.53635     -132.18718      38.742696     -93.444485              0 
 93             240.04288      347.85794     -218.08886      39.560672     -178.52819              0 
 94             229.00894      331.41637     -209.09235      37.742205     -171.35015              0 
 95             244.03597      353.90407     -176.98744      40.218759     -136.76869              0 
 96             234.641        339.89984     -214.82186      38.670405     -176.15145              0 
 97             236.46445      342.89589     -176.71473      38.970922     -137.74381              0 
 98             240.35733      348.62504     -143.20939      39.612494     -103.59689              0 
 99             242.785        351.68357     -212.63903      40.01259      -172.62644              0 
 100            242.33448      350.72802     -207.90596      39.938342     -167.96762              0 
 101            237.52499      344.23113     -119.49453      39.145706     -80.348827              0 
 102            238.4793       345.58097     -208.0208       39.302983     -168.71782              0 
 103            226.45765      328.06922     -183.38252      37.321735     -146.06078              0 
 104            238.15868      345.20768     -141.29158      39.250143     -102.04144              0 
 105            230.82801      334.27425     -208.78041      38.041999     -170.73841              0 
 106            232.99225      337.04262     -136.72415      38.39868      -98.325466              0 
 107            234.38191      339.16523     -202.54439      38.627706     -163.91668              0 
 108            231.30841      335.43633     -156.69924      38.121173     -118.57807              0 
 109            248.14048      359.56581     -259.55402      40.895211     -218.65881              0 
 110            231.46489      335.6928      -157.55405      38.146961     -119.40709              0 
 111            237.87736      344.93835     -155.19302      39.20378      -115.98924              0 
 112            228.74598      331.60404     -105.75951      37.698867     -68.060647              0 
 113            231.40806      335.37055     -143.51959      38.137595     -105.382                0 
 114            221.49536      321.16008     -179.21386      36.503916     -142.70994              0 
 115            236.26673      342.02416     -141.05272      38.938337     -102.11438              0 
 116            237.16443      343.82914     -141.96903      39.086284     -102.88274              0 
 117            230.04204      333.31955     -169.20674      37.912467     -131.29428              0 
 118            242.52291      351.39953     -178.70166      39.969396     -138.73227              0 
 119            229.58191      332.83149     -156.14697      37.836634     -118.31033              0 
 120            240.79474      348.716       -191.10417      39.684583     -151.41959              0 
 121            231.82644      336.12556     -231.77594      38.206547     -193.56939              0 
 122            232.5277       336.92016     -222.09038      38.32212      -183.76826              0 
 123            240.28556      348.21837     -152.25328      39.600667     -112.65262              0 
 124            236.79228      343.36845     -226.67595      39.024951     -187.651                0 
 125            225.80029      327.25361     -215.93074      37.213397     -178.71735              0 
 126            236.44913      342.22325     -111.83156      38.968397     -72.863167              0 
 127            225.91853      327.10328     -207.37561      37.232884     -170.14273              0 
 128            231.01316      334.53782     -200.71932      38.072513     -162.64681              0 
 129            226.56914      328.12311     -212.62852      37.340108     -175.28841              0 
 130            230.83408      334.67478     -219.328        38.042999     -181.285                0 
 131            233.50966      338.55404     -169.93938      38.483953     -131.45543              0 
 132            223.5755       323.73881     -172.98972      36.846736     -136.14298              0 
 133            220.47863      319.19174     -199.27829      36.336352     -162.94194              0 
 134            235.24187      340.016       -191.9889       38.769432     -153.21947              0 
 135            232.52537      336.75872     -147.84157      38.321735     -109.51983              0 
 136            248.46315      359.88722     -217.28605      40.948388     -176.33767              0 
 137            233.15664      337.76632     -204.6203       38.425773     -166.19453              0 
 138            209.54125      303.43453     -196.08971      34.533799     -161.55592              0 
 139            223.1321       323.29756     -193.64712      36.773662     -156.87346              0 
 140            235.4015       341.42156     -154.84439      38.795741     -116.04865              0 
 141            230.22985      333.90619     -233.93492      37.943419     -195.9915               0 
 142            228.3931       330.58329     -160.20037      37.64071      -122.55966              0 
 143            246.306        356.47425     -191.81292      40.592875     -151.22004              0 
 144            238.15718      344.27021     -150.55997      39.249896     -111.31007              0 
 145            241.77182      350.62297     -145.16869      39.845612     -105.32308              0 
 146            232.2351       336.15087     -162.26439      38.273896     -123.9905               0 
 147            230.08629      333.52251     -158.85206      37.919758     -120.9323               0 
 148            231.89638      336.34466     -151.93801      38.218073     -113.71994              0 
 149            236.38966      342.77273     -128.83291      38.958596     -89.874317              0 
 150            223.52347      324.03965     -170.76147      36.838162     -133.92331              0 
 151            230.07135      332.92259     -207.87658      37.917297     -169.95928              0 
 152            223.97549      324.66599     -108.44977      36.912658     -71.537112              0 
 153            220.14158      318.78979     -170.07184      36.280803     -133.79103              0 
 154            225.63311      327.08051     -226.67561      37.185846     -189.48977              0 
 155            238.94431      345.39899     -219.62761      39.37962      -180.24799              0 
 156            222.53079      322.48807     -157.31798      36.674563     -120.64342              0 
 157            222.22614      321.24118     -161.58047      36.624353     -124.95611              0 
 158            225.48397      326.94668     -198.51857      37.161265     -161.35731              0 
 159            224.72291      325.17882     -188.72727      37.035837     -151.69143              0 
 160            216.68368      313.82321     -168.55186      35.710919     -132.84094              0 
 161            234.20301      339.55126     -184.43645      38.598222     -145.83822              0 
 162            223.75508      324.50296     -176.69638      36.876333     -139.82004              0 
 163            226.0057       327.50651     -105.82167      37.24725      -68.574417              0 
 164            233.14677      336.73439     -237.38173      38.424146     -198.95758              0 
 165            223.36825      323.68779     -158.48152      36.812581     -121.66894              0 
 166            223.48928      323.77836     -204.08367      36.832527     -167.25114              0 
 167            234.93364      340.34215     -247.27205      38.718635     -208.55341              0 
 168            225.17194      326.58601     -188.68896      37.109841     -151.57912              0 
 169            231.06531      334.63707     -149.27683      38.081108     -111.19572              0 
 170            219.6342       318.3418      -104.38444      36.197185     -68.187252              0 
 171            223.9029       324.33742     -171.40201      36.900694     -134.50132              0 
 172            213.73663      309.07876     -174.93815      35.225225     -139.71293              0 
 173            217.82434      314.46914     -194.9138       35.898907     -159.01489              0 
 174            223.62131      324.20257     -214.40271      36.854286     -177.54843              0 
 175            215.33436      312.05282     -129.15055      35.488543     -93.662003              0 
 176            226.86421      327.9307      -163.36692      37.388738     -125.97819              0 
 177            223.53257      323.50108     -182.07956      36.839662     -145.2399               0 
 178            226.72829      328.8505      -162.24496      37.366338     -124.87862              0 
 179            232.11896      335.73443     -151.46386      38.254756     -113.2091               0 
 180            223.82881      324.39376     -147.49224      36.888484     -110.60376              0 
 181            208.57554      302.34144     -204.86124      34.374643     -170.4866               0 
 182            224.3633       325.18487     -228.75535      36.976572     -191.77877              0 
 183            221.993        321.93012     -183.55742      36.58593      -146.97149              0 
 184            212.73945      308.22984     -155.14775      35.060884     -120.08686              0 
 185            220.03111      319.13259     -206.69399      36.262599     -170.43139              0 
 186            232.36365      336.84892     -162.77451      38.295083     -124.47943              0 
 187            224.15011      324.83985     -155.93889      36.941437     -118.99745              0 
 188            219.75247      318.12318     -242.76811      36.216676     -206.55144              0 
 189            231.65794      335.72175     -185.13694      38.178777     -146.95817              0 
 190            223.26615      323.56465     -161.63014      36.795753     -124.83438              0 
 191            225.7974       327.4324      -163.82296      37.212921     -126.61004              0 
 192            219.89557      318.70952     -181.17615      36.240259     -144.93589              0 
 193            222.64507      322.56487     -232.92755      36.693396     -196.23416              0 
 194            228.81289      330.45195     -245.09977      37.709894     -207.38987              0 
 195            219.92122      318.84803     -206.22855      36.244487     -169.98406              0 
 196            212.75215      308.24833     -162.9732       35.062976     -127.91023              0 
 197            226.78098      328.44069     -130.699        37.375022     -93.323981              0 
 198            225.4978       326.90326     -158.64253      37.163545     -121.47899              0 
 199            213.87689      310.16133     -178.54536      35.248342     -143.29702              0 
 200            222.95048      322.89438     -179.78517      36.74373      -143.04144              0 
 201            208.20726      301.67495     -210.23827      34.313949     -175.92432              0 
 202            204.38622      296.05962     -148.1664       33.684215     -114.48218              0 
 203            214.78093      311.39688     -157.35316      35.397333     -121.95583              0 
 204            225.78211      327.32285     -207.14668      37.210401     -169.93628              0 
 205            216.60617      313.81645     -214.00376      35.698144     -178.30562              0 
 206            212.67786      308.00844     -178.11862      35.050733     -143.06789              0 
 207            208.84306      302.57851     -202.37322      34.418732     -167.95449              0 
 208            217.20218      314.79346     -149.61446      35.796372     -113.81808              0 
 209            216.32404      313.4272      -133.37747      35.651647     -97.725821              0 
 210            216.07956      313.26475     -166.57219      35.611357     -130.96083              0 
 211            203.3515       294.21854     -172.18998      33.513687     -138.67629              0 
 212            217.04414      314.54198     -111.72011      35.770324     -75.949784              0 
 213            216.2551       313.46071     -184.37355      35.640286     -148.73326              0 
 214            212.66946      308.41978     -161.65207      35.049349     -126.60272              0 
 215            223.82556      324.56113     -224.22328      36.887948     -187.33533              0 
 216            218.92302      317.10605     -193.18624      36.079977     -157.10626              0 
 217            222.71221      322.76276     -204.98765      36.704462     -168.28319              0 
 218            224.51945      325.49767     -150.12977      37.002306     -113.12746              0 
 219            222.81258      322.96052     -179.57114      36.721002     -142.85014              0 
 220            216.86052      314.50003     -112.32673      35.740064     -76.586663              0 
 221            209.62508      303.87032     -136.81424      34.547614     -102.26663              0 
 222            208.798        302.69056     -217.4718       34.411306     -183.0605               0 
 223            213.18435      309.15026     -171.29043      35.134205     -136.15623              0 
 224            222.10546      322.13221     -140.12664      36.604465     -103.52218              0 
 225            215.48814      312.23848     -211.31452      35.513886     -175.80064              0 
 226            210.89313      305.85506     -144.93192      34.756598     -110.17533              0 
 227            219.94709      318.98166     -203.87241      36.248752     -167.62365              0 
 228            222.93188      323.07121     -213.60981      36.740664     -176.86914              0 
 229            211.73939      306.56409     -206.07159      34.896067     -171.17553              0 
 230            205.82007      298.07626     -191.28961      33.920523     -157.36909              0 
 231            212.26387      306.91615     -249.127        34.982505     -214.1445               0 
 232            221.79433      321.55415     -166.45485      36.553188     -129.90166              0 
 233            206.84064      299.67934     -209.54727      34.08872      -175.45855              0 
 234            204.94173      297.02857     -218.97547      33.775767     -185.19971              0 
 235            203.43903      295.07907     -196.2161       33.528112     -162.68799              0 
 236            209.87595      304.2032      -226.44997      34.58896      -191.86101              0 
 237            210.66363      305.46516     -160.39738      34.718775     -125.67861              0 
 238            212.06446      306.82573     -140.70533      34.949641     -105.75569              0 
 239            223.75722      324.27922     -187.55796      36.876686     -150.68127              0 
 240            203.06206      293.61224     -97.273123      33.465985     -63.807139              0 
 241            218.38434      316.6842      -160.48749      35.991198     -124.49629              0 
 242            208.57309      301.71125     -186.90786      34.374239     -152.53362              0 
 243            209.70654      303.4938      -159.09084      34.56104      -124.5298               0 
 244            202.52878      293.47071     -203.91001      33.378096     -170.53192              0 
 245            203.89582      295.65072     -257.69782      33.603393     -224.09443              0 
 246            205.01137      297.05378     -221.01635      33.787244     -187.22911              0 
 247            211.73256      306.89141     -233.62849      34.894941     -198.73355              0 
 248            212.09628      307.19463     -202.23106      34.954885     -167.27618              0 
 249            207.58169      301.0628      -259.19779      34.210851     -224.98694              0 
 250            213.10875      308.87375     -179.30445      35.121747     -144.1827               0 
 251            206.5802       299.36374     -183.55381      34.045797     -149.50801              0 
 252            215.63194      312.41207     -153.65598      35.537586     -118.11839              0 
 253            219.33254      317.71955     -169.4689       36.147469     -133.32143              0 
 254            202.62083      293.44081     -207.99041      33.393268     -174.59714              0 
 255            214.83058      311.10173     -162.58331      35.405516     -127.17779              0 
 256            207.16449      299.91278     -215.399        34.142093     -181.2569               0 
 257            202.16154      292.87215     -206.03347      33.317573     -172.7159               0 
 258            206.67205      299.38863     -213.17433      34.060936     -179.1134               0 
 259            209.67703      304.04132     -189.96771      34.556177     -155.41154              0 
 260            208.48131      302.35603     -150.6312       34.359114     -116.27208              0 
 261            214.19403      310.26343     -157.30051      35.300608     -121.9999               0 
 262            206.26976      298.60871     -131.67176      33.994635     -97.677128              0 
 263            208.37257      302.06459     -211.95855      34.341192     -177.61736              0 
 264            205.64158      297.47465     -175.99705      33.891107     -142.10594              0 
 265            195.42455      283.46414     -173.9572       32.207272     -141.74993              0 
 266            203.48002      295.09871     -142.70207      33.534867     -109.16721              0 
 267            210.2424       304.60347     -218.04578      34.649354     -183.39642              0 
 268            204.44481      295.69055     -153.11482      33.693871     -119.42095              0 
 269            203.3543       294.75197     -154.89567      33.514148     -121.38152              0 
 270            205.67814      298.0154      -157.11005      33.897132     -123.21292              0 
 271            213.25379      308.92877     -192.79311      35.145651     -157.64746              0 
 272            208.51624      302.11266     -148.26046      34.36487      -113.89559              0 
 273            210.233        304.74118     -165.27335      34.647803     -130.62555              0 
 274            204.73833      296.83236     -217.87951      33.742245     -184.13726              0 
 275            196.3893       284.55993     -177.23122      32.36627      -144.86495              0 
 276            202.08383      293.03902     -193.45244      33.304766     -160.14767              0 
 277            210.60289      305.29159     -194.7907       34.708765     -160.08193              0 
 278            199.62143      288.41913     -187.06569      32.898946     -154.16675              0 
 279            199.22483      288.69059     -199.75823      32.833584     -166.92464              0 
 280            200.19547      289.40978     -192.17035      32.993551     -159.1768               0 
 281            199.75706      289.57456     -156.47065      32.921299     -123.54935              0 
 282            201.86587      292.18721     -197.68095      33.268845     -164.4121               0 
 283            204.42699      296.3134      -207.97113      33.690934     -174.28019              0 
 284            204.53136      296.64084     -175.2951       33.708135     -141.58696              0 
 285            204.60101      296.16832     -181.43838      33.719614     -147.71876              0 
 286            199.05555      288.24485     -151.90279      32.805685     -119.09711              0 
 287            203.01237      294.13205     -152.47697      33.457796     -119.01918              0 
 288            204.72695      296.64012     -170.06413      33.74037      -136.32376              0 
 289            206.23203      298.78357     -210.21345      33.988417     -176.22503              0 
 290            200.23729      290.31902     -187.15718      33.000443     -154.15674              0 
 291            207.88763      301.26772     -141.27917      34.261271     -107.0179               0 
 292            203.31567      294.32316     -179.20139      33.507782     -145.69361              0 
 293            195.32259      283.21845     -179.80702      32.190469     -147.61655              0 
 294            202.7017       293.56534     -189.61789      33.406594     -156.2113               0 
 295            203.79481      294.96917     -139.64272      33.586746     -106.05598              0 
 296            205.23173      297.48425     -200.02552      33.823561     -166.20195              0 
 297            200.7637       290.87431     -210.61094      33.0872       -177.52374              0 
 298            195.76737      283.709       -126.94372      32.263772     -94.679944              0 
 299            206.73763      299.79168     -196.92126      34.071744     -162.84951              0 
 300            191.83607      278.00676     -191.76947      31.615867     -160.1536               0 
Loop time of 2550.9 on 9 procs for 300000 steps with 1716 atoms

Performance: 10.161 ns/day, 2.362 hours/ns, 117.606 timesteps/s, 201.811 katom-step/s
99.6% CPU use with 9 MPI tasks x no OpenMP threads

MPI task timing breakdown:
Section |  min time  |  avg time  |  max time  |%varavg| %total
---------------------------------------------------------------
Pair    | 17.647     | 469.57     | 2412.6     |3302.4 | 18.41
Bond    | 0.082774   | 0.74434    | 3.4675     | 116.7 |  0.03
Neigh   | 15.264     | 15.413     | 15.601     |   3.3 |  0.60
Comm    | 25.913     | 1965.2     | 2416.3     |1610.5 | 77.04
Output  | 2.3393     | 2.3497     | 2.36       |   0.5 |  0.09
Modify  | 88.815     | 94.824     | 100.38     |  38.8 |  3.72
Other   |            | 2.796      |            |       |  0.11

Nlocal:        190.667 ave         738 max          39 min
Histogram: 4 2 1 1 0 0 0 0 0 1
Nghost:        5419.22 ave        6798 max        3178 min
Histogram: 1 0 0 1 3 0 0 0 2 2
Neighs:        45285.8 ave      228093 max        2309 min
Histogram: 5 1 2 0 0 0 0 0 0 1
FullNghs:       192419 ave      924679 max        4228 min
Histogram: 4 2 2 0 0 0 0 0 0 1

Total # of neighbors = 1731770
Ave neighs/atom = 1009.19
Ave special neighs/atom = 1.5384615
Neighbor list builds = 3310
Dangerous builds = 0
System init for write_data ...
Generated 0 of 3 mixed pair_coeff terms from geometric mixing rule
  create bodies CPU = 0.000 seconds
  440 rigid bodies with 1320 atoms
  0.95730378 = max distance from body owner to body atom
Generated 0 of 3 mixed pair_coeff terms from geometric mixing rule
Setting up Verlet run ...
  Unit style    : metal
  Current step  : 300000
  Time step     : 0.001
Per MPI rank memory allocation (min/avg/max) = 18.41 | 19.75 | 26.24 Mbytes
     Time           Temp         c_Twater        PotEng         KinEng         TotEng       Ndanger  
 300            191.83607      278.00676     -191.76947      31.615867     -160.1536               0 
 301            203.94118      295.22726     -212.96932      33.61087      -179.35845              0 
 302            199.79767      289.47466     -169.37854      32.927992     -136.45055              0 
 303            191.42279      277.54772     -159.1733       31.547756     -127.62554              0 
 304            201.547        291.50429     -172.72666      33.216293     -139.51036              0 
 305            202.14575      292.81046     -169.02238      33.314971     -135.70741              0 
 306            196.41964      284.1566      -224.81696      32.37127      -192.44569              0 
 307            199.59746      289.44542     -197.98         32.894995     -165.085                0 
 308            185.27855      268.21973     -237.29294      30.535144     -206.75779              0 
 309            189.49927      274.28085     -193.38082      31.230746     -162.15008              0 
 310            192.90615      279.48644     -162.15759      31.792224     -130.36537              0 
 311            201.87325      292.59955     -207.94453      33.27006      -174.67447              0 
 312            209.40075      303.61776     -177.15633      34.510643     -142.64569              0 
 313            200.01263      290.07851     -181.41955      32.963418     -148.45613              0 
 314            199.42119      288.99358     -188.64233      32.865946     -155.77638              0 
 315            208.07409      301.07777     -202.91546      34.292002     -168.62345              0 
 316            203.02189      294.18475     -252.31455      33.459365     -218.85518              0 
 317            207.02977      299.52345     -145.7428       34.11989      -111.62291              0 
 318            204.44218      296.04909     -186.63841      33.693438     -152.94497              0 
 319            198.78414      287.7412      -214.82712      32.760955     -182.06617              0 
 320            193.26199      279.81016     -171.10344      31.850868     -139.25257              0 
 321            198.25809      287.42538     -172.72106      32.674259     -140.0468               0 
 322            202.65552      293.03558     -181.52671      33.398985     -148.12772              0 
 323            205.35345      297.43554     -131.93879      33.843621     -98.095171              0 
 324            197.6507       286.39675     -265.24574      32.574157     -232.67159              0 
 325            195.99782      284.17535     -141.95739      32.301751     -109.65564              0 
 326            212.66167      307.95189     -205.34732      35.048065     -170.29926              0 
 327            204.92362      297.10552     -191.16144      33.772782     -157.38866              0 
 328            204.11271      296.01713     -186.11656      33.639139     -152.47742              0 
 329            200.49479      290.27247     -170.82314      33.042882     -137.78026              0 
 330            202.79501      294.0076      -154.76021      33.421973     -121.33824              0 
 331            191.94027      278.11881     -227.15914      31.633039     -195.52611              0 
 332            193.67063      280.89068     -191.13737      31.918215     -159.21916              0 
 333            206.52072      299.38312     -171.5396       34.035995     -137.5036               0 
 334            200.21         290.11706     -244.31344      32.995947     -211.31749              0 
 335            202.71078      293.83563     -195.85527      33.408091     -162.44718              0 
 336            194.39272      281.94844     -239.42129      32.037219     -207.38407              0 
 337            198.04935      287.12092     -186.40685      32.639857     -153.76699              0 
 338            195.55839      283.22267     -208.38592      32.22933      -176.15659              0 
 339            197.57713      286.52043     -221.3957       32.562032     -188.83366              0 
 340            207.35965      300.09652     -246.01771      34.174257     -211.84345              0 
 341            192.72172      279.12181     -176.50543      31.761828     -144.74361              0 
 342            205.84255      298.41698     -252.60432      33.924228     -218.68009              0 
 343            196.915        285.60022     -214.30467      32.452908     -181.85176              0 
 344            207.93347      301.37384     -196.27458      34.268827     -162.00575              0 
 345            200.55771      290.56437     -157.21965      33.053251     -124.1664               0 
 346            199.55069      289.26227     -193.72697      32.887288     -160.83968              0 
 347            202.01974      292.81471     -125.86187      33.294204     -92.567665              0 
 348            205.44069      297.85309     -195.50923      33.858        -161.65123              0 
 349            191.2194       277.26926     -229.55027      31.514235     -198.03603              0 
 350            199.3501       289.1007      -195.82508      32.854229     -162.97085              0 
 351            194.34071      281.85369     -186.35092      32.028649     -154.32227              0 
 352            188.22039      272.56336     -207.54899      31.019979     -176.52901              0 
 353            207.66586      301.01031     -182.14306      34.224722     -147.91834              0 
 354            198.19318      287.25113     -211.63247      32.663561     -178.9689               0 
 355            196.72629      285.14726     -229.86639      32.421807     -197.44459              0 
 356            202.6062       293.63435     -142.14569      33.390857     -108.75483              0 
 357            202.72117      294.00673     -144.86319      33.409803     -111.45338              0 
 358            201.04246      291.24135     -164.67958      33.133141     -131.54644              0 
 359            200.73576      290.93973     -211.92204      33.082595     -178.83944              0 
 360            209.99555      304.49574     -210.4698       34.60867      -175.86113              0 
 361            211.72836      306.84422     -182.70024      34.89425      -147.80599              0 
 362            205.3865       297.20785     -231.9041       33.849068     -198.05503              0 
 363            205.01955      297.26592     -182.17475      33.788593     -148.38615              0 
 364            204.40846      296.29959     -153.90295      33.68788      -120.21507              0 
 365            207.31909      300.29022     -179.34954      34.167573     -145.18197              0 
 366            203.5913       294.98485     -186.49653      33.553208     -152.94332              0 
 367            198.20541      287.18853     -166.04901      32.665577     -133.38343              0 
 368            199.67073      289.50883     -130.83205      32.907071     -97.924982              0 
 369            210.09554      304.64911     -221.59541      34.62515      -186.97026              0 
 370            201.99648      292.81613     -185.70764      33.29037      -152.41727              0 
 371            197.58208      286.34712     -172.65722      32.562848     -140.09437              0 
 372            194.07105      281.48267     -185.4522       31.984207     -153.46799              0 
 373            199.56013      289.28829     -239.51368      32.888844     -206.62483              0 
 374            209.7949       303.74759     -249.70555      34.575602     -215.12995              0 
 375            195.45336      282.77114     -210.87198      32.21202      -178.65996              0 
 376            203.57908      295.13682     -161.39264      33.551193     -127.84145              0 
 377            198.11622      287.28464     -167.90549      32.650878     -135.25461              0 
 378            212.23988      307.66489     -204.08374      34.978551     -169.10518              0 
 379            191.25949      276.84708     -190.10166      31.520843     -158.58082              0 
 380            193.05244      279.89543     -241.69408      31.816333     -209.87775              0 
 381            196.02242      284.18788     -166.77948      32.305804     -134.47368              0 
 382            200.02478      289.95095     -200.41838      32.96542      -167.45296              0 
 383            200.91212      291.13214     -190.95949      33.11166      -157.84783              0 
 384            200.73122      290.82744     -201.05452      33.081848     -167.97268              0 
 385            194.09931      281.36809     -198.97798      31.988863     -166.98911              0 
 386            202.3211       293.09866     -260.01153      33.343869     -226.66766              0 
 387            213.28648      309.28296     -186.63314      35.151037     -151.48211              0 
 388            203.65585      295.38091     -272.59041      33.563846     -239.02657              0 
 389            202.06099      293.03519     -182.28914      33.301002     -148.98814              0 
 390            199.41604      289.10101     -181.92423      32.865097     -149.05914              0 
 391            203.02911      294.32747     -176.95665      33.460554     -143.4961               0 
 392            206.96961      300.09914     -193.76655      34.109975     -159.65657              0 
 393            207.21755      300.16968     -183.50432      34.150837     -149.35348              0 
 394            209.45221      303.6897      -229.28087      34.519124     -194.76174              0 
 395            205.5967       298.07419     -209.68371      33.883711     -175.8                  0 
 396            209.87034      304.37573     -194.30787      34.588035     -159.71983              0 
 397            189.05456      273.69514     -162.76141      31.157456     -131.60396              0 
 398            205.93372      298.40947     -214.21113      33.939254     -180.27188              0 
 399            206.29326      298.99148     -149.11043      33.998508     -115.11192              0 
 400            201.61788      292.15169     -225.87253      33.227975     -192.64455              0 
Loop time of 807.336 on 9 procs for 100000 steps with 1716 atoms

Performance: 10.702 ns/day, 2.243 hours/ns, 123.864 timesteps/s, 212.551 katom-step/s
99.5% CPU use with 9 MPI tasks x no OpenMP threads

MPI task timing breakdown:
Section |  min time  |  avg time  |  max time  |%varavg| %total
---------------------------------------------------------------
Pair    | 4.8293     | 156.67     | 763.84     |1809.4 | 19.41
Bond    | 0.021802   | 0.2473     | 1.0639     |  62.8 |  0.03
Neigh   | 4.5255     | 4.5762     | 4.6355     |   1.9 |  0.57
Comm    | 8.2731     | 614.16     | 765.54     | 911.4 | 76.07
Output  | 0.71336    | 0.71667    | 0.72       |   0.3 |  0.09
Modify  | 28.105     | 30.107     | 32.334     |  23.6 |  3.73
Other   |            | 0.8666     |            |       |  0.11

Nlocal:        190.667 ave         716 max          42 min
Histogram: 4 2 1 1 0 0 0 0 0 1
Nghost:        5480.89 ave        7177 max        3208 min
Histogram: 1 0 0 2 1 1 0 1 1 2
Neighs:        46269.4 ave      228164 max        2421 min
Histogram: 6 0 2 0 0 0 0 0 0 1
FullNghs:       192661 ave      895742 max        4412 min
Histogram: 5 1 1 1 0 0 0 0 0 1

Total # of neighbors = 1733946
Ave neighs/atom = 1010.458
Ave special neighs/atom = 1.5384615
Neighbor list builds = 1057
Dangerous builds = 0
System init for write_data ...
Generated 0 of 3 mixed pair_coeff terms from geometric mixing rule
Total wall time: 0:55:58
