LAMMPS (2 Aug 2023 - Update 1)
Reading data file ...
  orthogonal box = (0 0 0) to (34.9641 31.7217 30)
  3 by 2 by 1 MPI processor grid
  reading atoms ...
  157 atoms
  scanning bonds ...
  2 = max bonds/atom
  scanning angles ...
  1 = max angles/atom
  reading bonds ...
  2 bonds
  reading angles ...
  1 angles
Finding 1-2 1-3 1-4 neighbors ...
  special bond factors lj:    0        0        0       
  special bond factors coul:  0        0        0       
     2 = max # of 1-2 neighbors
     1 = max # of 1-3 neighbors
     1 = max # of 1-4 neighbors
     2 = max # of special neighbors
  special bonds CPU = 0.000 seconds
  read_data CPU = 0.006 seconds
3 atoms in group water
Setting atom values ...
  1 settings made for charge
Setting atom values ...
  2 settings made for charge
Generated 0 of 3 mixed pair_coeff terms from geometric mixing rule
Neighbor list info ...
  update: every = 1 steps, delay = 0 steps, check = yes
  max neighbors/atom: 2000, page size: 100000
  master list distance cutoff = 12
  ghost atom cutoff = 12
  binsize = 6, bins = 6 6 5
  1 neighbor lists, perpetual/occasional/extra = 1 0 0
  (1) pair lj/smooth/linear, perpetual
      attributes: half, newton on
      pair build: half/bin/newton
      stencil: half/bin/3d
      bin: standard
WARNING: Dump mydump includes no atom IDs and is not sorted by ID. This may complicate post-processing tasks or visualization (../dump.cpp:221)
Setting up Verlet run ...
  Unit style    : metal
  Current step  : 0
  Time step     : 0.001
Per MPI rank memory allocation (min/avg/max) = 6.595 | 6.641 | 6.866 Mbytes
     Time         Step          Temp         c_Twater        PotEng         KinEng         TotEng       Ndanger      c_COM[1]       c_COM[2]       c_COM[3]   
 0                      0   0              0              0.0083566823   0              0.0083566823           0   12.112393      18.156426      14.274913    
 1                   1000   1.0205562      49.676418      0.0044800766   0.02057909     0.025059166            0   11.114896      17.445567      13.398356    
 2                   2000   0.69699087     17.087297     -0.0071095002   0.01405453     0.0069450297           0   11.378329      18.124196      12.598148    
 3                   3000   0.99157372     54.430725     -0.048927888    0.01999467    -0.028933218            0   11.609685      17.673614      11.806017    
 4                   4000   0.61262111     32.993815     -0.038082869    0.012353249   -0.02572962             0   12.024802      17.597099      11.889207    
 5                   5000   0.88223278     30.253865     -0.052864145    0.017789856   -0.035074289            0   11.679443      17.483068      11.830326    
 6                   6000   0.50081321     21.818195     -0.04654373     0.010098689   -0.036445041            0   12.495533      17.283962      11.814812    
 7                   7000   1.4877854      100.85083     -0.064360932    0.030000572   -0.034360361            0   13.224924      17.263157      11.548805    
 8                   8000   0.45094854     21.722        -0.051250381    0.0090931892  -0.042157192            0   13.426326      17.546443      11.767211    
 9                   9000   0.52638972     38.300712     -0.064165446    0.010614429   -0.053551017            0   13.330382      17.1346        11.432172    
 10                 10000   0.72783524     46.363958     -0.054145531    0.014676494   -0.039469037            0   13.021412      17.308929      11.40552     
 11                 11000   0.55849596     21.885805     -0.067746487    0.011261838   -0.056484649            0   13.424564      17.225087      11.556711    
 12                 12000   0.59187242     30.257235     -0.052120125    0.01193486    -0.040185265            0   13.70194       17.597143      11.66051     
 13                 13000   0.55665582     15.320041     -0.053933271    0.011224732   -0.042708539            0   13.854449      17.989023      11.818918    
 14                 14000   1.8997917      66.183385     -0.056121536    0.038308507   -0.017813029            0   14.007669      18.709954      11.739826    
 15                 15000   0.83480063     28.926843     -0.044644306    0.016833406   -0.027810899            0   13.757685      20.022228      11.860506    
 16                 16000   0.8734781      58.274731     -0.043826679    0.017613321   -0.026213358            0   13.571281      19.418698      11.64118     
 17                 17000   1.2229031      76.023344     -0.052871257    0.024659331   -0.028211926            0   13.267926      20.132138      11.725976    
 18                 18000   0.86172355     64.080809     -0.058706621    0.017376296   -0.041330326            0   13.354443      20.088143      11.478043    
 19                 19000   0.50146847     22.704132     -0.046229696    0.010111902   -0.036117793            0   13.318077      20.080872      11.816864    
 20                 20000   0.53717136     34.600774     -0.039178295    0.010831836   -0.028346459            0   13.543457      20.319515      12.002154    
 21                 21000   0.69081907     16.362916     -0.043399872    0.013930078   -0.029469794            0   13.177868      19.95494       11.848936    
 22                 22000   1.211359       53.122469     -0.047599855    0.024426548   -0.023173307            0   13.470506      20.109868      11.625639    
 23                 23000   0.67900695     40.995995     -0.053535004    0.013691892   -0.039843112            0   14.288583      21.994313      11.722616    
 24                 24000   0.64361211     43.153362     -0.051618936    0.01297817    -0.038640766            0   13.876862      21.817862      11.835614    
 25                 25000   1.1811958      87.809331     -0.03882541     0.02381832    -0.01500709             0   14.340715      21.771908      11.970377    
 26                 26000   0.85967458     62.530221     -0.056210811    0.017334979   -0.038875832            0   14.262011      21.503187      11.803182    
 27                 27000   0.93849283     37.918055     -0.061708153    0.018924316   -0.042783836            0   14.139585      21.487086      11.533084    
 28                 28000   1.0801256      75.494552     -0.061789386    0.021780282   -0.040009104            0   14.190506      21.781407      11.543989    
 29                 29000   0.90587461     44.520115     -0.061317034    0.018266583   -0.04305045             0   13.991731      21.380859      11.583912    
 30                 30000   0.68171657     17.911455     -0.050399649    0.01374653    -0.036653119            0   13.815232      21.881167      11.691851    
 31                 31000   0.49927715     36.318081     -0.049955792    0.010067715   -0.039888076            0   13.982655      21.028202      11.54074     
 32                 32000   0.93903181     31.598206     -0.059116423    0.018935185   -0.040181239            0   13.972831      21.718408      11.580975    
 33                 33000   0.44365835     27.848643     -0.04830472     0.0089461854  -0.039358535            0   13.819499      21.330017      11.812977    
 34                 34000   0.58840018     11.273005     -0.056762529    0.011864844   -0.044897685            0   13.627743      20.7195        11.678985    
 35                 35000   0.84272917     43.278026     -0.055465692    0.016993282   -0.03847241             0   13.279909      20.577356      11.602615    
 36                 36000   1.1081796      46.591524     -0.063494443    0.022345979   -0.041148464            0   14.079853      18.695949      11.566565    
 37                 37000   0.4775758      23.699903     -0.054133445    0.0096301166  -0.044503328            0   13.846212      18.023905      11.726608    
 38                 38000   0.78160409     29.062624     -0.052454166    0.01576072    -0.036693446            0   13.704803      18.203388      11.528918    
 39                 39000   0.79865176     19.698443     -0.063470268    0.016104479   -0.047365789            0   14.198916      18.765096      11.557425    
 40                 40000   0.64264668     44.213347     -0.051932983    0.012958702   -0.038974281            0   13.122386      19.960357      11.692573    
 41                 41000   1.0179716      73.253513     -0.057060851    0.020526973   -0.036533878            0   12.874376      20.32462       11.752415    
 42                 42000   1.2417225      78.727061     -0.054200795    0.025038816   -0.029161979            0   13.381702      20.148892      11.464403    
 43                 43000   1.3337041      70.104777     -0.06537257     0.026893586   -0.038478984            0   13.477746      20.238936      11.555937    
 44                 44000   0.90764918     54.2566       -0.057059575    0.018302367   -0.038757209            0   13.186202      19.9743        11.454171    
 45                 45000   0.35994775     20.418227     -0.062421097    0.0072581961  -0.055162901            0   13.330735      20.218115      11.571275    
 46                 46000   0.54481086     11.813727     -0.057728912    0.010985884   -0.046743029            0   13.552382      20.111646      11.768455    
 47                 47000   1.3056861      61.193788     -0.06290068     0.026328615   -0.036572065            0   13.371859      19.941147      11.567884    
 48                 48000   1.171412       50.004341     -0.051988821    0.023621035   -0.028367786            0   13.550609      20.396477      11.637159    
 49                 49000   0.26995619     11.211381     -0.045846334    0.0054435538  -0.04040278             0   13.471827      20.00575       11.45976     
 50                 50000   0.87797211     14.406303     -0.052818561    0.017703941   -0.03511462             0   13.329553      20.027054      11.598171    
 51                 51000   0.30630308     10.091059     -0.058080646    0.0061764737  -0.051904172            0   14.397584      21.648386      11.487021    
 52                 52000   1.8228136      73.572254     -0.060829005    0.036756276   -0.024072729            0   13.955842      21.455358      11.474012    
 53                 53000   0.88979083     51.865426     -0.04104629     0.017942261   -0.023104029            0   13.153058      19.825513      11.65043     
 54                 54000   1.3252246      64.154017     -0.045566882    0.026722602   -0.01884428             0   13.752788      20.198524      11.811946    
 55                 55000   1.7995101      104.78805     -0.047669536    0.03628637    -0.011383165            0   13.595615      19.336437      11.724333    
 56                 56000   1.4594939      53.359454     -0.039758263    0.029430085   -0.010328178            0   14.132583      18.339904      11.6177      
 57                 57000   1.0697843      54.802175     -0.054136902    0.021571754   -0.032565147            0   16.153148      19.28729       11.804485    
 58                 58000   1.0487651      79.634325     -0.056630191    0.021147911   -0.03548228             0   15.767396      18.734845      11.310201    
 59                 59000   0.56755223     33.376675     -0.045236075    0.011444454   -0.033791621            0   16.052761      19.457913      11.662943    
 60                 60000   0.61534011     17.439511     -0.048845057    0.012408077   -0.036436981            0   16.03488       19.563375      11.753775    
 61                 61000   1.3428093      70.903454     -0.042185434    0.027077189   -0.015108245            0   16.481792      19.231232      11.860059    
 62                 62000   0.88383484     25.195578     -0.035228928    0.017822161   -0.017406768            0   14.978514      18.040292      12.101792    
 63                 63000   0.79067115     46.001253     -0.030989589    0.015943554   -0.015046035            0   13.338429      17.443267      11.816471    
 64                 64000   1.9082775      118.93247     -0.041973994    0.038479619   -0.0034943751           0   13.762411      17.828743      11.687403    
 65                 65000   1.849275       68.667011     -0.049107946    0.037289858   -0.011818087            0   14.627209      18.712234      11.518891    
 66                 66000   2.517892       110.65151     -0.049686963    0.050772241    0.0010852777           0   15.167536      18.589593      11.760679    
 67                 67000   2.1129016      75.740826     -0.050581589    0.042605779   -0.0079758096           0   16.564952      17.361239      11.809261    
 68                 68000   0.72070984     47.562928     -0.05272174     0.014532813   -0.038188927            0   16.788647      17.643394      11.563896    
 69                 69000   1.3888762      94.582616     -0.058150685    0.028006108   -0.030144577            0   16.554757      17.128942      11.680714    
 70                 70000   0.88243118     54.865338     -0.05907436     0.017793856   -0.041280504            0   16.639647      17.540407      11.727562    
 71                 71000   1.1938308      46.174761     -0.047022171    0.0240731     -0.022949071            0   17.485249      17.172906      11.704835    
 72                 72000   1.2551959      84.558514     -0.053040589    0.025310502   -0.027730087            0   18.675324      17.563029      11.658681    
 73                 73000   1.5126448      108.76972     -0.054497627    0.030501851   -0.023995776            0   18.394019      17.290485      11.676963    
 74                 74000   0.86427742     58.29155      -0.035635882    0.017427793   -0.018208089            0   18.7377        16.811392      11.43602     
 75                 75000   0.73027113     43.976726     -0.038881336    0.014725613   -0.024155723            0   19.569442      15.796999      12.09957     
 76                 76000   1.4375458      59.513115     -0.046924895    0.028987512   -0.017937383            0   19.372332      15.536259      11.805361    
 77                 77000   1.8422542      54.928731     -0.066415135    0.037148287   -0.029266849            0   19.093383      15.75424       11.441689    
 78                 78000   1.4118464      30.730464     -0.044137765    0.028469293   -0.015668472            0   19.84701       16.079226      11.730583    
 79                 79000   0.8415746      7.8249642     -0.048149306    0.01697       -0.031179306            0   17.833314      14.403174      11.627094    
 80                 80000   1.3454362      52.673397     -0.063690209    0.02713016    -0.036560049            0   18.112995      14.350068      11.585081    
 81                 81000   1.0368795      78.845733     -0.062408219    0.020908242   -0.041499976            0   18.346655      14.408631      11.704991    
 82                 82000   1.1112493      62.682198     -0.063439346    0.022407878   -0.041031468            0   18.404604      14.297869      11.649982    
 83                 83000   0.78264577     18.806287     -0.055275706    0.015781725   -0.03949398             0   18.453561      14.38772       11.809739    
 84                 84000   0.69434429     48.499073     -0.046472924    0.014001163   -0.032471761            0   19.000164      13.574445      11.922036    
 85                 85000   0.82125502     25.123215     -0.052879836    0.016560265   -0.036319571            0   19.091228      12.754986      11.61327     
 86                 86000   0.40993864     14.448999     -0.059491446    0.0082662416  -0.051225204            0   19.127866      12.811623      11.516055    
 87                 87000   0.55254475     31.125698     -0.064393566    0.011141834   -0.053251731            0   19.199601      12.841712      11.53601     
 88                 88000   0.69753307     32.156451     -0.052039263    0.014065463   -0.0379738              0   19.001715      12.998206      11.629716    
 89                 89000   1.3177157      80.046929     -0.052608792    0.026571187   -0.026037605            0   19.335532      12.682703      11.728246    
 90                 90000   0.84740903     39.967206     -0.052476315    0.017087649   -0.035388665            0   18.895648      13.296283      11.823198    
 91                 91000   0.49258027     36.226401     -0.065462175    0.0099326755  -0.055529499            0   19.065735      12.767815      11.615498    
 92                 92000   1.107432       70.233723     -0.064947521    0.022330903   -0.042616618            0   19.204066      13.056055      11.482509    
 93                 93000   0.91384538     44.773013     -0.054603961    0.018427311   -0.03617665             0   19.37039       12.999268      11.66981     
 94                 94000   1.1503059      38.224437     -0.061937168    0.023195439   -0.038741729            0   19.460414      12.977798      11.553192    
 95                 95000   1.2245144      70.005388     -0.060552723    0.024691821   -0.035860902            0   19.328338      13.147718      11.597045    
 96                 96000   0.32450412     23.16082      -0.048193767    0.0065434901  -0.041650277            0   19.317148      12.918292      11.858804    
 97                 97000   1.0562648      55.821171     -0.046253075    0.021299139   -0.024953937            0   18.99317       13.278016      11.901686    
 98                 98000   0.69134912     42.883973     -0.06401089     0.013940766   -0.050070124            0   18.414092      14.206855      11.48        
 99                 99000   0.64011666     29.592098     -0.065780501    0.012907685   -0.052872816            0   18.222042      14.313092      11.476809    
 100               100000   0.1635703      10.421376     -0.062247848    0.0032983269  -0.058949521            0   18.36264       14.318852      11.414804    
 101               101000   0.16218804     8.8955331     -0.064175302    0.0032704542  -0.060904847            0   18.324603      14.525887      11.600544    
 102               102000   0.31206135     22.453129     -0.046907062    0.0062925868  -0.040614475            0   18.296136      14.239573      11.358521    
 103               103000   0.71199879     33.158374     -0.052267788    0.014357158   -0.03791063             0   19.165486      16.131423      11.530661    
 104               104000   0.60984525     25.85254      -0.049588044    0.012297275   -0.037290769            0   18.56517       14.667157      11.770471    
 105               105000   0.90178561     25.748358     -0.065091519    0.01818413    -0.046907389            0   18.297202      14.417368      11.567513    
 106               106000   0.5547876      16.174663     -0.050576395    0.01118706    -0.039389335            0   19.5013        15.83045       11.523176    
 107               107000   0.43271429     18.126784     -0.049026435    0.008725503   -0.040300932            0   20.760596      16.337306      11.780728    
 108               108000   0.74607587     32.583185     -0.057966989    0.015044308   -0.04292268             0   20.940944      15.487506      11.537338    
 109               109000   0.79883904     41.848081     -0.05899825     0.016108256   -0.042889994            0   20.955542      15.778647      11.544382    
 110               110000   0.57002981     19.113805     -0.059734398    0.011494413   -0.048239985            0   20.675352      15.834958      11.486514    
 111               111000   0.39393487     22.49415      -0.059496708    0.0079435322  -0.051553176            0   20.936159      15.895546      11.618529    
 112               112000   0.4857726      21.241068     -0.060270357    0.0097954017  -0.050474956            0   20.782041      15.633991      11.552312    
 113               113000   1.8117413      101.53749     -0.068589904    0.036533008   -0.032056896            0   20.821517      15.919149      11.483598    
 114               114000   1.1728253      40.657335     -0.052867469    0.023649533   -0.029217937            0   20.917926      16.130882      11.611032    
 115               115000   0.98871159     60.370253     -0.03842274     0.019936956   -0.018485784            0   20.624405      15.610539      11.555148    
 116               116000   0.73574729     40.617252     -0.061182775    0.014836037   -0.046346738            0   20.946339      16.249542      11.615397    
 117               117000   0.53686322     14.9524       -0.063192687    0.010825623   -0.052367064            0   20.631556      15.812163      11.660612    
 118               118000   1.4150225      100.92065     -0.033736438    0.028533337   -0.0052031012           0   21.042906      16.575203      11.994311    
 119               119000   1.2193909      89.661783     -0.040058106    0.024588509   -0.015469597            0   20.984922      15.587047      11.834634    
 120               120000   1.2562942      53.654612     -0.039443415    0.025332647   -0.014110767            0   21.670594      16.742965      11.786427    
 121               121000   1.1125351      42.325717     -0.058817756    0.022433806   -0.036383951            0   21.469648      17.252899      11.433751    
 122               122000   0.38914686     18.471794     -0.057798565    0.0078469839  -0.049951581            0   21.850247      17.248153      11.461026    
 123               123000   0.88935404     57.382209     -0.050627385    0.017933453   -0.032693932            0   21.324311      17.149695      11.709968    
 124               124000   0.97164226     65.472549     -0.047410892    0.019592761   -0.027818132            0   21.444163      16.97988       11.838564    
 125               125000   0.74959139     9.0762976     -0.055720876    0.015115197   -0.040605678            0   21.467571      17.594474      11.508519    
 126               126000   0.95665059     54.021387     -0.052160359    0.01929046    -0.032869899            0   22.011274      17.254603      11.65824     
 127               127000   1.2345315      67.553156     -0.037722482    0.024893812   -0.01282867             0   21.002163      18.223861      11.962212    
 128               128000   0.76352306     37.606425     -0.04836934     0.015396124   -0.032973216            0   20.106645      19.015346      11.868865    
 129               129000   0.52799333     27.267972     -0.046691477    0.010646765   -0.036044711            0   21.071359      19.772728      11.88155     
 130               130000   1.0773051      77.335436     -0.064423588    0.021723408   -0.04270018             0   21.58889       19.955365      11.493593    
 131               131000   0.4849806      23.562673     -0.050369976    0.0097794314  -0.040590544            0   21.546518      19.800194      11.497677    
 132               132000   1.8724311      62.407735     -0.051263602    0.037756791   -0.013506811            0   21.194313      19.297776      11.687252    
 133               133000   1.8249588      61.542124     -0.058612102    0.036799532   -0.02181257             0   21.554761      20.122956      11.630657    
 134               134000   0.82860027     53.020801     -0.044092448    0.016708379   -0.02738407             0   22.755461      20.398492      11.896722    
 135               135000   0.80377145     52.050339     -0.05708255     0.016207716   -0.040874835            0   23.272124      19.886446      11.698626    
 136               136000   0.31022353     7.7671876     -0.059746435    0.006255528   -0.053490907            0   23.406368      20.520366      11.626885    
 137               137000   1.1308627      58.756493     -0.056509682    0.022803374   -0.033706308            0   23.620361      20.077611      11.510367    
 138               138000   1.4479727      76.547884     -0.056808741    0.029197765   -0.027610976            0   21.657735      20.125015      11.410021    
 139               139000   0.43084924     8.1884842     -0.062658602    0.0086878952  -0.053970707            0   21.662235      20.005147      11.509362    
 140               140000   0.59020667     33.074438     -0.052274669    0.011901271   -0.040373398            0   21.766489      20.37022       11.534561    
 141               141000   0.74239975     20.302335     -0.050777297    0.014970181   -0.035807115            0   22.083649      19.865184      11.642442    
 142               142000   1.1658385      75.851087     -0.064868298    0.023508646   -0.041359651            0   23.415928      20.268394      11.465531    
 143               143000   1.958611       133.64142     -0.049692618    0.039494573   -0.010198045            0   22.697822      20.22096       11.708606    
 144               144000   1.0513611      36.310369     -0.054161523    0.021200258   -0.032961265            0   24.007298      18.676121      11.64291     
 145               145000   0.33091158     14.280641     -0.053003616    0.0066726939  -0.046330922            0   24.515216      18.849217      11.716602    
 146               146000   1.7913185      101.70759     -0.062803351    0.03612119    -0.026682161            0   24.29945       18.678432      11.615196    
 147               147000   1.0423149      65.748768     -0.052395047    0.021017846   -0.031377201            0   24.18288       19.007367      11.761372    
 148               148000   0.53877318     27.01162      -0.061713083    0.010864136   -0.050848947            0   24.11954       18.994947      11.680456    
 149               149000   0.51712602     39.92444      -0.056361301    0.01042763    -0.04593367             0   24.64835       18.743309      11.545279    
 150               150000   1.1193062      83.861531     -0.061788374    0.022570343   -0.039218031            0   25.818487      18.790733      11.307783    
 151               151000   0.62238754     20.748304     -0.060649566    0.012550185   -0.048099381            0   25.74005       18.736915      11.367466    
 152               152000   0.90416694     39.245301     -0.04096158     0.018232149   -0.022729431            0   25.918921      18.867732      11.279937    
 153               153000   1.7997012      126.10045     -0.038502001    0.036290224   -0.0022117767           0   26.150561      18.321508      11.665822    
 154               154000   1.1103983      65.548271     -0.061319409    0.022390719   -0.03892869             0   26.569241      17.376729      11.656972    
 155               155000   0.87015042     50.03456      -0.041588744    0.01754622    -0.024042524            0   26.490714      17.131198      11.640957    
 156               156000   0.99797774     39.593874     -0.034283705    0.020123805   -0.014159901            0   26.761849      17.266959      11.818301    
 157               157000   0.80226196     17.697774     -0.039164456    0.016177278   -0.022987178            0   26.379779      17.451413      11.888673    
 158               158000   1.0342397      66.710383     -0.058873167    0.020855011   -0.038018155            0   26.704197      17.318938      11.450501    
 159               159000   0.81056088     56.366189     -0.066886102    0.016344622   -0.05054148             0   26.7669        17.416931      11.497511    
 160               160000   0.46773216     32.704053     -0.058256621    0.0094316238  -0.048824997            0   26.58684       17.308724      11.607389    
 161               161000   0.54148125     25.562417     -0.059781945    0.010918743   -0.048863201            0   26.445092      17.373895      11.600735    
 162               162000   1.5901568      95.591609     -0.055384797    0.032064849   -0.023319948            0   26.341347      17.201743      11.759255    
 163               163000   0.95969799     55.058333     -0.054285929    0.01935191    -0.03493402             0   26.563924      17.301921      11.827113    
 164               164000   0.33695849     20.285452     -0.061163815    0.0067946274  -0.054369188            0   26.458244      17.172484      11.499149    
 165               165000   0.731022       37.35136      -0.062737861    0.014740754   -0.047997108            0   26.541425      17.420744      11.455038    
 166               166000   0.56278965     40.567319     -0.065285205    0.011348418   -0.053936787            0   26.814801      17.312259      11.487028    
 167               167000   0.50979444     26.851852     -0.043215161    0.010279792   -0.032935369            0   26.375495      17.262014      11.46588     
 168               168000   0.72299816     47.315922     -0.044226536    0.014578956   -0.02964758             0   26.56126       16.837211      11.570599    
 169               169000   0.60450269     23.641664     -0.050016451    0.012189545   -0.037826906            0   26.394442      17.42538       11.73522     
 170               170000   1.111087       69.906575     -0.052972119    0.022404605   -0.030567514            0   26.33408       17.979163      11.620372    
 171               171000   0.4300497      25.543171     -0.058338673    0.0086717726  -0.0496669              0   26.35036       17.428516      11.543603    
 172               172000   0.5234614      20.111191     -0.066565613    0.010555381   -0.056010233            0   26.670736      17.303587      11.587173    
 173               173000   0.76139391     54.743825     -0.055234397    0.01535319    -0.039881207            0   26.557482      17.148863      11.696009    
 174               174000   1.0636499      74.052956     -0.05398378     0.021448057   -0.032535724            0   26.622662      17.625059      11.527633    
 175               175000   0.87761095     28.532089     -0.057286055    0.017696659   -0.039589397            0   26.546231      17.075844      11.706078    
 176               176000   1.1968557      85.255318     -0.043042646    0.024134095   -0.018908551            0   26.174117      18.117665      11.8636      
 177               177000   0.73497355     43.013868     -0.052193107    0.014820435   -0.037372672            0   25.690577      18.547748      11.557912    
 178               178000   0.7165767      46.320274     -0.05960327     0.01444947    -0.0451538              0   25.884084      18.976046      11.555166    
 179               179000   1.2502207      50.455682     -0.050781243    0.02521018    -0.025571064            0   24.582154      18.755765      11.842468    
 180               180000   0.87499151     36.787211     -0.056511684    0.017643839   -0.038867845            0   23.831638      19.063105      11.613123    
 181               181000   0.81510614     20.425194     -0.048747465    0.016436275   -0.03231119             0   24.011988      18.982524      11.743733    
 182               182000   0.66641948     46.280302     -0.05230159     0.013438071   -0.038863519            0   24.16202       18.669074      11.706532    
 183               183000   0.38055183     15.576932     -0.061134167    0.0076736689  -0.053460499            0   24.052148      18.715234      11.474782    
 184               184000   0.77961698     22.867452     -0.060196301    0.015720651   -0.04447565             0   23.986728      18.788938      11.479101    
 185               185000   1.0299182      66.824187     -0.052530713    0.02076787    -0.031762842            0   24.169093      18.974777      11.772762    
 186               186000   0.63066277     23.632708     -0.039815411    0.012717052   -0.027098359            0   23.971162      19.598624      11.802638    
 187               187000   0.57081887     36.296053     -0.057734932    0.011510324   -0.046224607            0   23.355837      19.964183      11.44338     
 188               188000   0.81621839     14.352766     -0.059520784    0.016458703   -0.043062081            0   23.202542      20.098828      11.4194      
 189               189000   0.92664542     49.581098     -0.057447944    0.018685418   -0.038762526            0   23.494845      19.99135       11.554984    
 190               190000   0.94952447     70.941242     -0.065024891    0.019146765   -0.045878127            0   23.170983      20.223307      11.56772     
 191               191000   0.93563518     43.116357     -0.053091189    0.018866693   -0.034224496            0   23.391827      20.692742      11.64172     
 192               192000   2.1444458      109.06116     -0.049075657    0.043241854   -0.005833803            0   23.982865      20.972002      11.854398    
 193               193000   0.99072156     52.332244     -0.03920371     0.019977487   -0.019226224            0   26.69328       22.413735      12.122438    
 194               194000   0.97908759     33.116307     -0.06108761     0.019742893   -0.041344717            0   26.891767      23.041169      11.522932    
 195               195000   0.33498267     20.033731     -0.062680911    0.0067547857  -0.055926125            0   26.524157      22.997798      11.402918    
 196               196000   1.4874571      102.3046      -0.05971345     0.029993952   -0.029719497            0   26.588278      23.148498      11.436767    
 197               197000   2.1978569      148.55007     -0.051165506    0.044318867   -0.0068466388           0   26.20292       23.558828      11.541788    
 198               198000   0.74645732     29.925857     -0.03979708     0.015052      -0.024745079            0   25.73715       24.567824      11.545127    
 199               199000   0.38326909     26.601817     -0.04563005     0.0077284612  -0.037901588            0   26.231909      24.597842      11.783097    
 200               200000   1.4574062      101.60041     -0.046897       0.029387987   -0.017509013            0   26.037785      24.304991      11.907826    
 201               201000   1.5037148      101.3884      -0.049911521    0.030321781   -0.01958974             0   25.313384      24.499231      11.587189    
 202               202000   1.4931265      99.18637      -0.033311141    0.030108274   -0.0032028677           0   26.076288      24.690954      11.838371    
 203               203000   1.3323718      88.485139     -0.043905209    0.026866721   -0.017038488            0   25.749649      24.544594      11.739487    
 204               204000   0.90367707     33.40355      -0.049406461    0.018222271   -0.03118419             0   25.748247      24.306512      11.700103    
 205               205000   1.731688       89.239487     -0.052899678    0.034918765   -0.017980913            0   24.639429      24.289152      11.849813    
 206               206000   0.89301236     61.520844     -0.055526703    0.018007221   -0.037519482            0   23.801087      23.71181       11.70189     
 207               207000   0.70978705     23.86289      -0.052837592    0.01431256    -0.038525032            0   23.387511      23.003892      11.839913    
 208               208000   0.18405055     10.795824     -0.052980182    0.0037113026  -0.04926888             0   24.336347      24.735743      11.738902    
 209               209000   0.96059441     42.655648     -0.060808603    0.019369985   -0.041438618            0   24.164213      24.429351      11.673134    
 210               210000   1.5229861      7.3911514     -0.057522275    0.030710378   -0.026811897            0   23.247241      25.963515      11.605656    
 211               211000   1.1925504      35.257929     -0.065808601    0.024047282   -0.041761319            0   24.24344       24.477221      11.58351     
 212               212000   1.3221961      80.68664      -0.046645396    0.026661533   -0.019983863            0   23.544794      25.611944      11.699748    
 213               213000   0.62385104     47.037924     -0.063454538    0.012579696   -0.050874842            0   23.470203      25.68847       11.661907    
 214               214000   1.0534093      55.783669     -0.056118255    0.021241558   -0.034876697            0   23.416248      26.138813      11.464359    
 215               215000   0.52806837     31.647989     -0.045431453    0.010648278   -0.034783174            0   23.888164      26.723812      11.654889    
 216               216000   0.88745967     45.395116     -0.061164452    0.017895254   -0.043269198            0   24.145956      27.258377      11.415655    
 217               217000   1.1584635      44.682938     -0.057060417    0.023359933   -0.033700484            0   24.546768      27.307975      11.602145    
 218               218000   1.6547218      73.663189     -0.053115747    0.033366774   -0.019748973            0   25.794469      27.847276      11.714439    
 219               219000   0.6842226      28.441698     -0.055352048    0.013797063   -0.041554985            0   25.190305      27.533505      11.71674     
 220               220000   0.72802782     33.237272     -0.05483015     0.014680377   -0.040149773            0   26.040246      27.010995      11.758796    
 221               221000   1.0870014      55.17592      -0.054623144    0.021918929   -0.032704215            0   26.696856      26.164217      11.732497    
 222               222000   1.1310246      60.201719     -0.043333166    0.022806639   -0.020526528            0   26.324572      26.53807       11.79275     
 223               223000   0.99583958     64.186749     -0.040330738    0.02008069    -0.020250048            0   25.078852      27.450854      11.823933    
 224               224000   0.72720476     46.178509     -0.054012652    0.01466378    -0.039348871            0   25.914658      27.524276      11.54901     
 225               225000   0.83950371     12.059254     -0.060755255    0.016928242   -0.043827014            0   25.924054      27.304539      11.646801    
 226               226000   1.0336364      59.360713     -0.066050586    0.020842847   -0.045207739            0   25.950837      27.561041      11.575943    
 227               227000   1.6245642      119.98924     -0.061430841    0.032758659   -0.028672182            0   25.967781      27.254151      11.462673    
 228               228000   1.5417195      99.962268     -0.057380788    0.03108813    -0.026292658            0   25.500701      27.445114      11.59164     
 229               229000   1.4461656      66.232439     -0.049934499    0.029161326   -0.020773173            0   25.572604      27.379591      11.778782    
 230               230000   1.3514047      36.195019     -0.060479197    0.027250512   -0.033228685            0   24.005293      27.251838      11.543369    
 231               231000   0.43612651     25.152836     -0.054629274    0.0087943091  -0.045834965            0   23.721046      27.029957      11.727785    
 232               232000   0.76562776     41.669369     -0.057925418    0.015438564   -0.042486853            0   24.055639      27.042795      11.500775    
 233               233000   1.3138543      83.889733     -0.02799943     0.026493323   -0.0015061065           0   25.209251      27.127416      11.619451    
 234               234000   1.9802247      103.11302     -0.05868637     0.039930405   -0.018755965            0   25.865517      27.219664      11.663075    
 235               235000   0.83186743     29.099635     -0.060364478    0.016774259   -0.043590218            0   25.728257      27.54939       11.605582    
 236               236000   1.7719214      109.74832     -0.054404378    0.035730055   -0.018674324            0   25.512549      27.362494      11.672258    
 237               237000   0.92461657     48.821851     -0.06108651     0.018644507   -0.042442003            0   25.807962      27.313552      11.494445    
 238               238000   1.4689318      100.28663     -0.06745457     0.029620396   -0.037834174            0   25.633807      27.43813       11.467003    
 239               239000   0.93434724     55.685526     -0.062281056    0.018840722   -0.043440333            0   25.680683      27.452552      11.464262    
 240               240000   0.88401326     47.707475     -0.048066324    0.017825758   -0.030240566            0   26.021234      26.914117      11.829441    
 241               241000   1.4531456      78.68471      -0.06379169     0.029302075   -0.034489615            0   25.923211      27.437891      11.638221    
 242               242000   0.35430637     22.836468     -0.047401124    0.0071444401  -0.040256684            0   25.856234      27.534504      11.391437    
 243               243000   0.93750084     71.854008     -0.052492658    0.018904313   -0.033588344            0   25.864223      27.125432      11.850332    
 244               244000   0.74338796     45.003697     -0.045198544    0.014990108   -0.030208436            0   25.877784      27.180827      11.540454    
 245               245000   0.80343639     54.281024     -0.050492914    0.016200959   -0.034291955            0   26.162856      27.942771      11.814665    
 246               246000   0.54931425     34.260955     -0.057335134    0.011076692   -0.046258441            0   25.98007       27.447402      11.744964    
 247               247000   0.32278731     22.157938     -0.051410361    0.0065088713  -0.044901489            0   25.568361      27.322835      11.534154    
 248               248000   2.2735305      134.09618     -0.05379869     0.045844793   -0.0079538966           0   25.951468      26.861225      11.688717    
 249               249000   0.48713972     4.2922763     -0.047060056    0.0098229691  -0.037237087            0   25.753869      27.327223      11.668088    
 250               250000   0.72854337     38.985542     -0.045807817    0.014690773   -0.031117044            0   26.237273      27.90237       11.632869    
 251               251000   0.31803331     23.073812     -0.04476068     0.0064130089  -0.038347671            0   26.777696      28.919339      11.436934    
 252               252000   0.75477188     39.631119     -0.059586682    0.01521966    -0.044367022            0   26.562234      28.829206      11.500176    
 253               253000   1.2021877      64.275565     -0.049948973    0.024241614   -0.025707359            0   27.74639       28.877291      11.698882    
 254               254000   1.3192184      55.063431     -0.063063159    0.026601487   -0.036461671            0   28.322295      28.820676      11.638274    
 255               255000   0.95935663     37.893542     -0.059922794    0.019345026   -0.040577768            0   28.436262      28.934583      11.586732    
 256               256000   0.73467078     52.751556     -0.060039108    0.01481433    -0.045224778            0   28.188516      28.717262      11.402219    
 257               257000   0.90941997     51.811554     -0.04665311     0.018338074   -0.028315036            0   28.664015      29.167655      11.55042     
 258               258000   1.2080537      85.906896     -0.052338689    0.024359898   -0.02797879             0   28.821243      29.708618      11.508044    
 259               259000   1.0442519      50.028095     -0.053422205    0.021056903   -0.032365301            0   29.338714      30.319474      11.489623    
 260               260000   1.0346592      45.609408     -0.066775125    0.020863471   -0.045911653            0   29.101634      30.233639      11.570581    
 261               261000   0.5628652      25.651931     -0.06240233     0.011349942   -0.051052388            0   29.110625      30.46668       11.693088    
 262               262000   0.37625113     23.899012     -0.061355479    0.0075869469  -0.053768532            0   29.095498      30.095091      11.39411     
 263               263000   1.0593093      65.28971      -0.054914449    0.021360529   -0.03355392             0   28.852672      30.576577      11.74904     
 264               264000   0.56071525     31.944331     -0.060397415    0.011306589   -0.049090826            0   29.134536      30.159343      11.717913    
 265               265000   0.49554298     28.71136      -0.058661923    0.0099924174  -0.048669506            0   29.169536      30.188867      11.63959     
 266               266000   1.5804715      105.99659     -0.045772547    0.031869549   -0.013902998            0   28.89221       29.92505       11.64006     
 267               267000   1.0438278      73.639512     -0.052458671    0.021048351   -0.03141032             0   28.981935      30.447073      11.489378    
 268               268000   0.62090317     31.224817     -0.058501332    0.012520253   -0.045981079            0   29.003349      30.279398      11.593711    
 269               269000   0.76101327     30.671237     -0.058179656    0.015345515   -0.042834141            0   28.795159      30.246747      11.646556    
 270               270000   0.93035009     45.958275     -0.056284836    0.018760121   -0.037524715            0   30.211638      30.119169      11.782985    
 271               271000   1.6489601      48.90954      -0.057787497    0.033250591   -0.024536906            0   28.960342      30.66112       11.778634    
 272               272000   1.5584651      73.737284     -0.049572542    0.031425798   -0.018146744            0   28.768552      31.285974      11.819134    
 273               273000   1.6271297      69.67497      -0.055606213    0.032810391   -0.022795822            0   29.17345       30.182074      11.662905    
 274               274000   0.31173657     10.078433     -0.031750483    0.0062860379  -0.025464445            0   30.769962      31.22512       11.93208     
 275               275000   1.4581258      77.752658     -0.049149301    0.029402497   -0.019746804            0   31.947459      31.801954      11.818926    
 276               276000   2.2309008      91.798505     -0.037452676    0.044985183    0.007532507            0   31.671726      31.366785      11.791751    
 277               277000   1.3613483      93.311765     -0.026005332    0.02745102     0.0014456879           0   30.030611      29.917351      12.063486    
 278               278000   0.93073643     49.383985     -0.057226828    0.018767912   -0.038458917            0   30.824034      30.061785      11.694463    
 279               279000   0.25620173     13.762284     -0.053732962    0.0051662009  -0.048566761            0   30.989238      30.402269      11.529165    
 280               280000   0.93779927     16.174194     -0.050932891    0.018910331   -0.03202256             0   30.577856      30.529097      11.545418    
 281               281000   1.184639       60.581455     -0.065669367    0.023887752   -0.041781615            0   31.714389      28.800053      11.363781    
 282               282000   0.97638673     58.571912     -0.057167899    0.019688431   -0.037479469            0   31.481045      28.596167      11.478947    
 283               283000   0.69236535     34.761433     -0.061497801    0.013961258   -0.047536542            0   31.495791      28.820373      11.58446     
 284               284000   1.5058627      94.770251     -0.064594198    0.030365093   -0.034229105            0   31.732513      28.94214       11.591401    
 285               285000   1.2545863      84.392046     -0.06655935     0.025298209   -0.041261141            0   31.501715      28.68888       11.521485    
 286               286000   0.55282779     20.736127     -0.057368264    0.011147542   -0.046220722            0   31.433975      28.601591      11.6444      
 287               287000   0.62596474     29.465217     -0.05024102     0.012622318   -0.037618703            0   31.509783      28.798395      11.874383    
 288               288000   0.66529991     48.739588     -0.056834727    0.013415495   -0.043419232            0   31.723856      28.652011      11.710756    
 289               289000   0.57971769     20.566161     -0.064939536    0.011689765   -0.05324977             0   31.715347      28.761182      11.465648    
 290               290000   1.1793678      53.854561     -0.063329404    0.02378146    -0.039547945            0   31.591917      28.933677      11.551058    
 291               291000   0.66548568     35.608341     -0.044697492    0.013419241   -0.031278251            0   31.585631      28.190709      12.036664    
 292               292000   0.35028551     23.295589     -0.053749002    0.0070633611  -0.046685641            0   31.751553      28.919596      11.563781    
 293               293000   0.777189       40.60242      -0.062697843    0.015671692   -0.047026151            0   31.57418       28.783623      11.424622    
 294               294000   0.73942905     48.779402     -0.05915071     0.014910278   -0.044240432            0   31.567379      28.855705      11.679313    
 295               295000   0.63987138     33.964023     -0.063862036    0.012902739   -0.050959296            0   31.529585      28.757575      11.568857    
 296               296000   0.54833987     32.396932     -0.05260466     0.011057045   -0.041547615            0   31.558994      28.736935      11.889443    
 297               297000   0.81276975     52.360271     -0.058395609    0.016389163   -0.042006447            0   31.626657      28.698491      11.553884    
 298               298000   0.84074031     63.914284     -0.058382699    0.016953177   -0.041429522            0   31.488033      28.760416      11.640026    
 299               299000   0.71401113     41.814482     -0.06191092     0.014397736   -0.047513183            0   31.6785        28.70261       11.455421    
 300               300000   1.2225689      47.298005     -0.04863146     0.024652591   -0.023978869            0   31.967485      28.835469      11.620956    
 301               301000   0.6817764      9.1283361     -0.045247563    0.013747737   -0.031499827            0   30.570663      27.154265      11.662249    
 302               302000   0.74934254     31.20485      -0.056294756    0.01511018    -0.041184576            0   30.823854      27.35569       11.427459    
 303               303000   0.85889555     34.227847     -0.052554502    0.01731927    -0.035235231            0   30.453885      27.235256      11.642625    
 304               304000   1.072199       22.72245      -0.047881625    0.021620445   -0.02626118             0   30.790352      27.257263      11.806534    
 305               305000   0.80659284     23.673431     -0.055293361    0.016264608   -0.039028754            0   30.553555      27.60789       11.666383    
 306               306000   0.60762377     24.589451     -0.064816367    0.01225248    -0.052563888            0   30.778739      27.336244      11.56816     
 307               307000   0.71178167     49.875377     -0.066644392    0.01435278    -0.052291612            0   30.809826      27.295346      11.633521    
 308               308000   0.82909743     53.847008     -0.065423463    0.016718404   -0.048705059            0   30.725568      27.246912      11.594635    
 309               309000   1.661238       102.8606      -0.05442197     0.033498171   -0.020923799            0   30.451798      27.247195      11.557829    
 310               310000   1.6794802      100.04233     -0.052858106    0.033866017   -0.018992089            0   32.292358      28.742242      11.702979    
 311               311000   2.5708833      138.11759     -0.04643252     0.051840788    0.0054082681           0   34.188052      27.333287      11.374397    
 312               312000   1.6731149      124.73729     -0.035768519    0.033737664   -0.0020308543           0   34.105142      27.403933      11.493914    
 313               313000   1.025671       67.089681     -0.057276165    0.020682228   -0.036593936            0   34.455363      27.277296      11.763296    
 314               314000   0.56691116     28.670131     -0.066274273    0.011431527   -0.054842746            0   34.07796       27.432581      11.459769    
 315               315000   0.85374867     59.982325     -0.059433245    0.017215486   -0.04221776             0   34.378623      27.451276      11.546001    
 316               316000   0.5412249      26.272177     -0.0384945      0.010913574   -0.027580926            0   34.138672      27.461257      11.721377    
 317               317000   1.2339431      76.174055     -0.061130169    0.024881947   -0.036248222            0   34.259076      27.383534      11.711578    
 318               318000   0.60670561     36.433053     -0.054280768    0.012233965   -0.042046803            0   33.853361      27.76606       11.597026    
 319               319000   1.6485742      93.797006     -0.057764234    0.03324281    -0.024521424            0   33.989744      27.251089      11.684302    
 320               320000   0.86685049     32.810067     -0.05315911     0.017479678   -0.035679431            0   34.069785      27.415158      11.761307    
 321               321000   0.67216378     26.647629     -0.05893082     0.013553902   -0.045376918            0   34.047948      27.24117       11.500518    
 322               322000   0.68424471     32.764003     -0.056457367    0.013797509   -0.042659858            0   33.924302      27.193084      11.716305    
 323               323000   1.9926277      130.1854      -0.058865404    0.040180507   -0.018684897            0   34.295947      27.337582      11.488342    
 324               324000   0.85224223     52.558933     -0.058167656    0.017185109   -0.040982547            0   35.534768      27.37367       11.543803    
 325               325000   1.2449387      76.973177     -0.053908508    0.02510367    -0.028804838            0   35.799107      27.552948      11.506125    
 326               326000   1.096512       48.789837     -0.046872813    0.022110707   -0.024762107            0   35.745739      27.450262      11.526919    
 327               327000   0.88076573     48.141384     -0.064598767    0.017760273   -0.046838494            0   35.853702      27.453075      11.468369    
 328               328000   0.54512453     36.118693     -0.062432426    0.010992209   -0.051440217            0   35.654821      27.348071      11.600057    
 329               329000   1.2321618      78.365892     -0.053352196    0.024846029   -0.028506167            0   36.130659      27.224778      11.609828    
 330               330000   0.37212359     23.319183     -0.046072984    0.007503717   -0.038569267            0   33.676567      27.186041      11.562722    
 331               331000   1.0183712      52.253873     -0.060967526    0.020535031   -0.040432495            0   34.343418      27.186218      11.555261    
 332               332000   0.64363612     35.957759     -0.054092364    0.012978654   -0.041113711            0   33.836702      27.586939      11.683339    
 333               333000   0.44235841     28.217957     -0.042360092    0.0089199726  -0.033440119            0   33.861988      27.468883      11.832983    
 334               334000   0.71230624     49.979099     -0.062306178    0.014363358   -0.04794282             0   34.045775      27.307861      11.530145    
 335               335000   1.3062279      100.72077     -0.054777235    0.026339541   -0.028437694            0   33.897127      27.476681      11.709315    
 336               336000   0.83079632     59.250081     -0.050760468    0.016752661   -0.034007807            0   34.10551       27.489838      11.831591    
 337               337000   1.2073659      62.408326     -0.054988861    0.024346029   -0.030642832            0   33.762757      27.678111      11.645258    
 338               338000   0.77080796     33.249393     -0.058531007    0.015543021   -0.042987986            0   34.383921      27.431997      11.518184    
 339               339000   1.834954       112.67088     -0.06387877     0.037001082   -0.026877689            0   34.074949      27.510045      11.603396    
 340               340000   0.5609299      36.135887     -0.061127904    0.011310917   -0.049816987            0   34.236999      27.33636       11.699578    
 341               341000   0.70552559     41.846869     -0.053624488    0.014226629   -0.039397859            0   34.301889      27.553112      11.495175    
 342               342000   0.56770276     13.737669     -0.050075128    0.011447489   -0.038627639            0   33.907151      27.725841      11.475394    
 343               343000   0.62707688     45.851613     -0.059879235    0.012644744   -0.047234491            0   34.060003      27.552826      11.420767    
 344               344000   0.86217499     55.14292      -0.064353019    0.017385399   -0.04696762             0   33.997452      27.248255      11.654375    
 345               345000   0.25622205     14.807966     -0.055101334    0.0051666108  -0.049934724            0   34.142166      27.242376      11.377648    
 346               346000   0.53394482     33.66116      -0.060000814    0.010766774   -0.049234039            0   34.114923      27.518223      11.51099     
 347               347000   0.42716353     32.003536     -0.050966744    0.0086135744  -0.042353169            0   34.41721       27.307968      11.541391    
 348               348000   0.45612359     29.642221     -0.047117932    0.0091975419  -0.03792039             0   34.154692      27.573901      11.459237    
 349               349000   1.7410545      89.880874     -0.061789701    0.035107637   -0.026682064            0   34.168404      27.437568      11.620854    
 350               350000   0.53743687     36.895323     -0.044951656    0.01083719    -0.034114466            0   33.902102      27.12164       11.607754    
 351               351000   0.56515076     30.105734     -0.060157191    0.011396029   -0.048761162            0   34.110673      27.298398      11.584041    
 352               352000   0.35284923     22.267395     -0.044136062    0.0071150574  -0.037021005            0   33.896766      27.663996      12.001731    
 353               353000   0.84873776     43.782869     -0.054297598    0.017114443   -0.037183155            0   34.354355      27.436135      11.783456    
 354               354000   0.7125547      27.423716     -0.057024498    0.014368368   -0.04265613             0   34.302496      27.196096      11.673742    
 355               355000   0.34018085     25.400055     -0.064914914    0.0068596049  -0.058055309            0   34.217034      27.58985       11.519988    
 356               356000   0.57407337     37.786577     -0.05654765     0.01157595    -0.0449717              0   33.827086      27.222971      11.603211    
 357               357000   0.62292803     15.450226     -0.051800623    0.012561084   -0.039239539            0   33.888154      27.651079      11.631465    
 358               358000   1.066514       79.438141     -0.051219065    0.02150581    -0.029713255            0   33.873831      27.591912      11.623131    
 359               359000   0.92819913     69.211574     -0.055982488    0.018716748   -0.03726574             0   34.099301      27.494466      11.598686    
 360               360000   0.44285824     33.132325     -0.052917337    0.0089300515  -0.043987286            0   34.120175      27.220978      11.42659     
 361               361000   0.47114444     10.242443     -0.03674821     0.009500431   -0.027247779            0   33.377347      26.175846      12.126173    
 362               362000   1.042471       62.796029     -0.055386395    0.021020993   -0.034365403            0   33.124951      25.861948      11.430613    
 363               363000   0.86748444     53.209545     -0.063758393    0.017492462   -0.046265931            0   33.132353      26.042106      11.525598    
 364               364000   1.0595703      56.606401     -0.056743925    0.021365793   -0.035378132            0   33.487107      25.685942      11.598267    
 365               365000   0.81731285     44.282906     -0.04850841     0.016480772   -0.032027637            0   33.707332      25.164206      11.877573    
 366               366000   0.6251168      33.505051     -0.060342987    0.012605219   -0.047737768            0   33.553252      25.855462      11.504621    
 367               367000   1.7893777      128.41745     -0.050408067    0.036082054   -0.014326013            0   33.130131      26.14093       11.581314    
 368               368000   0.7064094      36.85505      -0.055772218    0.014244451   -0.041527767            0   33.138978      25.839597      11.755246    
 369               369000   1.0127286      27.132029     -0.054474149    0.02042125    -0.034052898            0   33.243363      25.744697      11.466787    
 370               370000   0.80890019     51.961392     -0.043182395    0.016311135   -0.02687126             0   32.681114      26.222621      11.993685    
 371               371000   1.0026228      48.93372      -0.058012764    0.020217469   -0.037795295            0   33.509218      25.803349      11.663384    
 372               372000   1.0231982      22.066859     -0.056454232    0.020632365   -0.035821868            0   33.811866      25.0872        11.569264    
 373               373000   0.95711904     12.632179     -0.055607083    0.019299906   -0.036307177            0   34.010886      24.105849      11.645297    
 374               374000   0.85408904     38.19868      -0.064314994    0.017222349   -0.047092645            0   33.356808      22.849097      11.586336    
 375               375000   1.0809748      67.628949     -0.062965993    0.021797405   -0.041168588            0   33.04507       23.112355      11.537715    
 376               376000   1.3855847      81.063418     -0.051987045    0.027939736   -0.024047309            0   34.019534      24.602062      11.739114    
 377               377000   0.57873732     23.655647     -0.052524764    0.011669996   -0.040854768            0   33.258776      26.136997      11.738179    
 378               378000   1.2519702      65.25188      -0.061539327    0.025245456   -0.036293872            0   33.225954      26.01896       11.745691    
 379               379000   1.2587659      64.319577     -0.05035271     0.025382488   -0.024970222            0   33.533461      26.050042      11.651305    
 380               380000   2.8250769      130.39952     -0.054131005    0.056966496    0.0028354916           0   33.799772      24.84053       11.649077    
 381               381000   0.77366548     53.536092     -0.054993833    0.015600642   -0.039393192            0   34.105988      24.236537      11.765046    
 382               382000   0.9254007      61.575121     -0.060875789    0.018660319   -0.04221547             0   33.193352      25.993228      11.561129    
 383               383000   0.28583588     17.964361     -0.055602557    0.0057637613  -0.049838795            0   33.644389      26.212295      11.750831    
 384               384000   0.57600772     11.917677     -0.056912399    0.011614955   -0.045297444            0   33.694824      25.776725      11.68304     
 385               385000   0.94894098     57.074602     -0.048810295    0.019134999   -0.029675296            0   33.598188      25.954815      11.507752    
 386               386000   0.65531066     13.871505     -0.060517954    0.013214066   -0.047303888            0   33.25772       25.930192      11.663685    
 387               387000   0.81366823     44.62953      -0.053785908    0.01640728    -0.037378628            0   32.987626      25.74217       11.578412    
 388               388000   0.80456792     45.300183     -0.063691043    0.016223776   -0.047467267            0   33.2348        25.939602      11.524876    
 389               389000   1.8313313      132.54389     -0.061199537    0.036928032   -0.024271504            0   33.290009      25.813983      11.388228    
 390               390000   2.3372427      72.27848      -0.048955436    0.047129524   -0.001825912            0   33.75422       27.076708      11.825108    
 391               391000   1.1282278      71.296771     -0.052871558    0.022750243   -0.030121315            0   33.836014      26.890866      11.674708    
 392               392000   1.4595317      73.004017     -0.05060782     0.029430847   -0.021176973            0   33.955787      27.021446      11.509705    
 393               393000   1.2549202      69.034609     -0.038381169    0.025304942   -0.013076227            0   33.874032      27.438591      11.475966    
 394               394000   0.58900109     19.159564     -0.057904129    0.011876961   -0.046027168            0   34.248684      27.293874      11.543302    
 395               395000   0.32249633     14.642199     -0.028069769    0.0065030038  -0.021566765            0   33.228855      27.098812      12.038361    
 396               396000   1.1985565      23.806411     -0.0540646      0.024168392   -0.029896208            0   31.235462      26.543584      11.605763    
 397               397000   1.1418577      71.303039     -0.067402292    0.023025085   -0.044377208            0   31.669663      26.056968      11.476596    
 398               398000   0.44100585     2.8132749     -0.05659293     0.0088926989  -0.047700231            0   31.534812      26.095053      11.769393    
 399               399000   0.3615557      26.377978     -0.056221832    0.0072906197  -0.048931213            0   31.237198      26.008389      11.722236    
 400               400000   0.8835106      40.292527     -0.055645743    0.017815622   -0.03783012             0   31.848492      25.933557      11.71146     
 401               401000   0.66434203     25.009119     -0.054022008    0.01339618    -0.040625828            0   31.587439      26.121283      11.403733    
 402               402000   1.1169792      49.540224     -0.046643121    0.02252342    -0.024119701            0   31.888836      25.533374      11.874231    
 403               403000   0.97086266     35.528775     -0.041203042    0.01957704    -0.021626002            0   31.187084      25.032718      11.446563    
 404               404000   1.3934231      52.342132     -0.049485764    0.028097796   -0.021387969            0   31.43738       25.949208      11.484288    
 405               405000   0.94126153     30.440497     -0.062174977    0.018980146   -0.043194831            0   31.632527      25.830725      11.624071    
 406               406000   0.70622516     48.0115       -0.056339526    0.014240736   -0.042098791            0   31.544895      26.299566      11.591714    
 407               407000   0.24234812     12.331208     -0.061869804    0.0048868487  -0.056982956            0   31.542207      25.768839      11.545724    
 408               408000   0.53670632     28.011359     -0.05182763     0.010822459   -0.041005171            0   31.882072      25.621876      11.746807    
 409               409000   0.36131733     12.111993     -0.057715123    0.0072858132  -0.05042931             0   32.350774      25.97443       11.62586     
 410               410000   1.1312243      64.769809     -0.0611954      0.022810665   -0.038384735            0   33.112918      25.9986        11.451906    
 411               411000   1.1924309      29.743877     -0.064316518    0.024044871   -0.040271647            0   33.159748      26.069068      11.567188    
 412               412000   0.76987771     42.432959     -0.0628884      0.015524263   -0.047364137            0   33.270013      25.825771      11.495212    
 413               413000   0.81952337     50.166717     -0.060941681    0.016525347   -0.044416334            0   33.325065      25.955332      11.574807    
 414               414000   0.39583055     26.715874     -0.06260411     0.0079817578  -0.054622352            0   33.473084      26.105717      11.567024    
 415               415000   0.65455077     45.281974     -0.062324059    0.013198743   -0.049125316            0   33.308854      25.851582      11.668003    
 416               416000   0.58327448     17.23253      -0.063310874    0.011761487   -0.051549387            0   33.312066      26.052144      11.334628    
 417               417000   2.0329425      62.756085     -0.060763394    0.040993436   -0.019769958            0   33.348713      26.084478      11.551711    
 418               418000   0.96044016     57.750109     -0.045926818    0.019366875   -0.026559943            0   33.602838      26.247727      11.795861    
 419               419000   1.777956       96.512584     -0.05791596     0.03585174    -0.02206422             0   33.637758      25.908943      11.703111    
 420               420000   0.76805367     42.238457     -0.046974528    0.015487482   -0.031487047            0   32.525489      25.901336      11.573963    
 421               421000   1.7072405      72.655595     -0.059235796    0.034425792   -0.024810004            0   32.092243      25.974712      11.625572    
 422               422000   0.83969887     30.092386     -0.024700142    0.016932177   -0.0077679643           0   32.685408      25.826403      12.356308    
 423               423000   0.59263687     38.274659     -0.052860249    0.011950275   -0.040909974            0   30.966882      27.657554      11.836441    
 424               424000   0.90521629     34.142191     -0.03632265     0.018253309   -0.018069342            0   29.673032      26.920872      11.812146    
 425               425000   0.4257938      32.835799     -0.057723093    0.0085859542  -0.049137138            0   29.090634      27.441622      11.654005    
 426               426000   0.81246281     55.254658     -0.064449316    0.016382973   -0.048066343            0   29.086563      27.508514      11.531949    
 427               427000   0.45520985     5.9744611     -0.033903237    0.0091791166  -0.02472412             0   29.171614      27.444781      11.69979     
 428               428000   0.45239957     27.470121     -0.055713237    0.0091224486  -0.046590789            0   29.239646      27.152423      11.490849    
 429               429000   0.48026522     15.643809     -0.066376963    0.0096843477  -0.056692616            0   29.100959      27.387517      11.572682    
 430               430000   0.83305928     37.276885     -0.051501271    0.016798293   -0.034702978            0   29.105876      27.400528      11.339328    
 431               431000   0.90770982     52.644812     -0.055510012    0.01830359    -0.037206422            0   29.003128      27.552058      11.451793    
 432               432000   1.0591733      47.654696     -0.061680194    0.021357788   -0.040322406            0   29.14858       27.568913      11.393497    
 433               433000   0.60522573     31.779457     -0.066918133    0.012204124   -0.054714009            0   29.102493      27.239685      11.595513    
 434               434000   1.2342855      46.954051     -0.062482692    0.024888851   -0.037593841            0   29.437251      27.406798      11.628593    
 435               435000   2.0551708      97.856542     -0.045512681    0.041441661   -0.00407102             0   28.672491      26.166097      11.648858    
 436               436000   0.80328093     52.037339     -0.065050726    0.016197825   -0.048852901            0   28.175558      25.941538      11.606995    
 437               437000   0.51234047     36.594162     -0.063860177    0.010331132   -0.053529045            0   28.304368      25.821697      11.571713    
 438               438000   0.40216067     28.203957     -0.04511521     0.008109402   -0.037005808            0   28.811535      25.417019      11.903793    
 439               439000   2.5702496      73.78182      -0.062658749    0.051828011   -0.010830738            0   28.147111      25.861798      11.611906    
 440               440000   1.0091075      67.08892      -0.063635846    0.020348232   -0.043287614            0   28.345807      25.995388      11.617079    
 441               441000   0.5320935      31.008956     -0.067227727    0.010729443   -0.056498283            0   28.298444      26.038522      11.521514    
 442               442000   0.39243016     14.728174     -0.061268404    0.0079131903  -0.053355213            0   28.264815      26.073602      11.651311    
 443               443000   1.0221009      65.855292     -0.058540216    0.020610239   -0.037929977            0   28.305174      26.228841      11.568268    
 444               444000   0.7622815      47.801049     -0.047321635    0.015371088   -0.031950546            0   28.411591      26.159243      11.316429    
 445               445000   1.3809716      88.180633     -0.053244603    0.027846717   -0.025397887            0   28.476427      26.103367      11.448859    
 446               446000   1.2605811      81.920279     -0.051407785    0.025419091   -0.025988694            0   28.699246      25.847691      11.625361    
 447               447000   1.475015       75.552452     -0.060887045    0.029743063   -0.031143982            0   26.498286      25.865816      11.392317    
 448               448000   0.82860595     53.022418     -0.048672315    0.016708493   -0.031963822            0   26.208184      25.124433      11.797247    
 449               449000   1.0712888      76.010052     -0.055462245    0.021602091   -0.033860154            0   26.055973      24.172538      11.703583    
 450               450000   0.22296411     10.01733      -0.054682295    0.0044959782  -0.050186316            0   25.406053      24.385143      11.77784     
 451               451000   0.89608435     26.6946       -0.060639239    0.018069167   -0.042570072            0   25.860358      24.480765      11.311896    
 452               452000   1.2074042      10.177504     -0.060432963    0.024346802   -0.036086161            0   25.634233      24.484079      11.511916    
 453               453000   0.95629012     24.023929     -0.042263905    0.019283191   -0.022980714            0   24.513308      24.218256      11.643348    
 454               454000   0.50897648     32.096412     -0.033904144    0.010263298   -0.023640846            0   24.308278      26.593006      11.98204     
 455               455000   0.72912394     29.294311     -0.045076384    0.01470248    -0.030373904            0   24.356711      27.005328      11.576247    
 456               456000   0.64863494     36.929397     -0.049633345    0.013079453   -0.036553892            0   23.940944      27.949677      11.904105    
 457               457000   1.5659332      96.05939      -0.055731515    0.03157639    -0.024155125            0   23.967468      27.390436      11.398027    
 458               458000   1.8866641      76.966808     -0.044617113    0.038043795   -0.0065733174           0   24.360706      27.984423      11.914322    
 459               459000   1.3006214      54.262598     -0.048428738    0.026226488   -0.02220225             0   26.521529      28.516629      11.969752    
 460               460000   0.76303776     39.509391     -0.05826604     0.015386338   -0.042879702            0   26.442923      28.640416      11.420886    
 461               461000   0.12486829     7.3573949     -0.05479568     0.0025179169  -0.052277763            0   27.098679      28.879952      11.597875    
 462               462000   0.64164556     48.578515     -0.060438267    0.012938515   -0.047499752            0   26.458476      29.136613      11.711685    
 463               463000   0.24611395     16.325881     -0.060672053    0.004962785   -0.055709268            0   26.626269      28.679386      11.64578     
 464               464000   1.5464304      100.26384     -0.06728887     0.031183123   -0.036105747            0   26.66683       28.761637      11.620942    
 465               465000   1.4763272      109.95072     -0.063379729    0.029769522   -0.033610207            0   26.648113      28.953864      11.471973    
 466               466000   0.94344991     59.802098     -0.053998241    0.019024274   -0.034973967            0   26.169108      29.693499      11.791061    
 467               467000   1.0488556      66.716423     -0.056554877    0.021149736   -0.035405141            0   25.630321      30.233459      11.64781     
 468               468000   2.7704867      162.60393     -0.061833841    0.055865707   -0.0059681342           0   25.805245      30.387124      11.712143    
 469               469000   1.7617081      68.92018      -0.050757325    0.035524109   -0.015233217            0   25.491648      30.22252       11.761047    
 470               470000   0.95561118     73.706563     -0.049694391    0.019269501   -0.030424891            0   26.273013      30.50319       11.800613    
 471               471000   0.33126247     23.600964     -0.06030158     0.0066797695  -0.053621811            0   25.748177      30.376687      11.45703     
 472               472000   0.30724081     16.277048     -0.054296994    0.0061953827  -0.048101611            0   26.174067      30.913495      11.635259    
 473               473000   0.6893162      16.779007     -0.056314686    0.013899774   -0.042414913            0   25.769185      30.546333      11.549176    
 474               474000   0.84445714     48.054598     -0.052180283    0.017028126   -0.035152157            0   25.864201      30.109759      11.771098    
 475               475000   0.71864177     52.249803     -0.062357733    0.014491111   -0.047866622            0   25.825032      30.213457      11.66244     
 476               476000   1.5131343      82.093583     -0.047435615    0.030511721   -0.016923893            0   24.868352      30.469965      11.913322    
 477               477000   0.77571755     50.650738     -0.048233994    0.015642021   -0.032591973            0   24.432617      29.986894      11.769312    
 478               478000   0.197914       8.3395152     -0.04620823     0.0039908532  -0.042217376            0   23.572913      29.517318      11.574966    
 479               479000   0.88234627     45.725137     -0.051073138    0.017792144   -0.033280994            0   23.339245      28.917543      11.247708    
 480               480000   1.1283922      77.176336     -0.063214131    0.022753558   -0.040460572            0   23.36005       28.969793      11.578448    
 481               481000   0.89574159     36.811864     -0.063188682    0.018062255   -0.045126427            0   23.274587      28.83571       11.53804     
 482               482000   0.20825554     14.230845     -0.051362648    0.004199386   -0.047163262            0   23.721031      29.155751      11.770794    
 483               483000   2.4960842      132.88004     -0.063626272    0.050332496   -0.013293776            0   23.215573      28.85269       11.417709    
 484               484000   1.2250501      80.977606     -0.04338659     0.024702624   -0.018683966            0   22.298482      29.08433       11.913974    
 485               485000   3.5091612      194.86488     -0.046631847    0.070760772    0.024128925            0   20.92106       27.604433      11.731473    
 486               486000   1.4287067      57.987423     -0.03639293     0.028809274   -0.0075836567           0   21.641973      25.855649      11.589198    
 487               487000   0.38268682     18.786918     -0.061411905    0.0077167201  -0.053695185            0   21.656124      26.073245      11.419749    
 488               488000   0.48510101     24.005126     -0.054405231    0.0097818593  -0.044623371            0   21.570503      26.297347      11.800202    
 489               489000   0.49816964     32.402161     -0.042307652    0.010045383   -0.032262269            0   22.058352      26.063292      11.899391    
 490               490000   0.75659082     42.910351     -0.04887883     0.015256338   -0.033622492            0   21.738562      25.906126      11.708945    
 491               491000   0.5084381      29.472786     -0.064691093    0.010252442   -0.054438651            0   21.828993      26.018903      11.544902    
[...]
 9884             9884000   1.2340424      39.853183     -0.048435852    0.02488395    -0.023551903            0   7.2063213      20.249863      11.505616    
 9885             9885000   0.52536288     22.780257     -0.062904561    0.010593723   -0.052310838            0   6.8695942      20.171127      11.594085    
 9886             9886000   0.68354815     35.573944     -0.06201734     0.013783463   -0.048233877            0   6.5956144      20.345963      11.511217    
 9887             9887000   0.95284642     46.087127     -0.054208083    0.01921375    -0.034994332            0   7.2486329      20.324277      11.598278    
 9888             9888000   0.57961661     40.288519     -0.055642684    0.011687727   -0.043954957            0   8.5639976      20.073828      11.476078    
 9889             9889000   0.7328998      15.608407     -0.056414039    0.014778619   -0.04163542             0   7.0188649      20.341028      11.703826    
 9890             9890000   0.77974709     49.644368     -0.034771944    0.015723275   -0.019048669            0   6.5360908      20.462254      11.893863    
 9891             9891000   1.1651056      21.071914     -0.045449729    0.023493867   -0.021955862            0   6.183717       19.533916      11.618614    
 9892             9892000   1.2770323      67.330742     -0.046516864    0.025750824   -0.02076604             0   5.8268282      18.440709      11.716499    
 9893             9893000   1.0174776      60.661833     -0.056021075    0.020517011   -0.035504064            0   5.738685       19.045435      11.552876    
 9894             9894000   0.43170945     9.4646389     -0.056016925    0.0087052408  -0.047311684            0   5.8067995      18.424711      11.635832    
 9895             9895000   1.21464        46.237151     -0.06290528     0.024492709   -0.038412571            0   5.9811936      18.824377      11.404231    
 9896             9896000   0.88434416     51.18601      -0.058495436    0.017832431   -0.040663005            0   5.9167314      18.907253      11.390384    
 9897             9897000   1.2251306      50.516738     -0.056169729    0.024704247   -0.031465481            0   6.0765281      18.756505      11.491988    
 9898             9898000   0.63591529     27.687636     -0.059876184    0.012822966   -0.047053217            0   5.9576073      18.704309      11.572773    
 9899             9899000   1.4195591      82.422402     -0.044654652    0.028624817   -0.016029834            0   5.5909759      18.735813      11.776688    
 9900             9900000   1.1261712      63.617015     -0.025651061    0.022708772   -0.0029422886           0   5.2688059      17.223828      12.186925    
 9901             9901000   1.3307486      20.343138     -0.050846874    0.026833991   -0.024012883            0   3.8454448      16.433453      11.641029    
 9902             9902000   1.9755122      65.086983     -0.052980108    0.039835378   -0.01314473             0   3.9582592      19.230044      11.56528     
 9903             9903000   0.77233474     35.631413     -0.059820141    0.015573808   -0.044246333            0   4.3037317      18.655935      11.481542    
 9904             9904000   0.83499911     47.411784     -0.060580764    0.016837408   -0.043743355            0   4.027954       18.557682      11.471725    
 9905             9905000   1.1703728      71.524385     -0.057453121    0.02360008    -0.033853041            0   4.3002025      18.741481      11.493765    
 9906             9906000   0.74851726     23.44282      -0.058272201    0.015093538   -0.043178663            0   4.249805       18.575435      11.748514    
 9907             9907000   1.4794096      94.718401     -0.036644294    0.029831677   -0.0068126172           0   3.6803055      17.117128      11.80435     
 9908             9908000   1.4940302      51.668769     -0.053952016    0.030126495   -0.023825521            0   3.6093725      17.010963      11.768593    
 9909             9909000   1.5223637      116.83964     -0.053017686    0.030697829   -0.022319857            0   4.7580037      15.89143       11.620008    
 9910             9910000   0.34284711     23.086757     -0.052331099    0.0069133689  -0.04541773             0   4.7895643      15.867758      11.793972    
 9911             9911000   0.67675561     45.943482     -0.061317401    0.013646494   -0.047670907            0   5.9393779      15.796734      11.517433    
 9912             9912000   0.77187202     49.100434     -0.059100217    0.015564477   -0.043535739            0   6.0022506      15.697797      11.533083    
 9913             9913000   0.9156735      51.350478     -0.059883517    0.018464174   -0.041419343            0   5.7662976      15.785814      11.403474    
 9914             9914000   1.7067558      83.794644     -0.057825953    0.034416019   -0.023409934            0   5.9076617      16.094193      11.558272    
 9915             9915000   0.94447925     46.211555     -0.057875417    0.01904503    -0.038830387            0   6.0085578      16.121344      11.542799    
 9916             9916000   1.5061062      110.41533     -0.056919654    0.030370003   -0.02654965             0   5.8462558      15.944581      11.677185    
 9917             9917000   1.1364703      43.981404     -0.035447692    0.02291645    -0.012531242            0   5.8029477      16.065268      11.489572    
 9918             9918000   0.64985458     26.700279     -0.034787137    0.013104046   -0.021683091            0   5.9425588      15.833676      11.502831    
 9919             9919000   1.0406375      67.834778     -0.05045095     0.020984022   -0.029466928            0   5.580355       15.924803      11.704038    
 9920             9920000   0.49665362     35.543063     -0.053258571    0.010014813   -0.043243758            0   5.8557013      15.828725      11.544704    
 9921             9921000   0.75338067     41.929399     -0.064407314    0.015191607   -0.049215707            0   5.960098       15.982819      11.398073    
 9922             9922000   1.0966237      79.248046     -0.059811597    0.022112959   -0.037698638            0   5.5914181      15.987597      11.458559    
 9923             9923000   1.8251244      124.36953     -0.055706354    0.036802872   -0.018903482            0   5.6629247      15.844236      11.513362    
 9924             9924000   1.2498095      69.218646     -0.04035773     0.025201888   -0.015155843            0   5.9402541      16.138126      11.405548    
 9925             9925000   0.54778156     34.046206     -0.03921145     0.011045786   -0.028165663            0   5.7695915      15.561481      11.852514    
 9926             9926000   0.35002306     22.748821     -0.057106931    0.0070580689  -0.050048862            0   5.740084       15.755653      11.397238    
 9927             9927000   1.3910845      85.760944     -0.058843326    0.028050638   -0.030792688            0   5.9857835      15.712573      11.565162    
 9928             9928000   1.0662538      70.845707     -0.061535592    0.021500563   -0.040035029            0   5.6912421      15.750137      11.496672    
 9929             9929000   1.1055541      67.180457     -0.058993115    0.022293036   -0.036700079            0   5.8554655      15.660907      11.594528    
 9930             9930000   0.83688002     50.826079     -0.062581968    0.016875336   -0.045706631            0   5.8943229      16.00641       11.619719    
 9931             9931000   1.2892463      89.949336     -0.062684558    0.025997114   -0.036687444            0   5.8373304      15.910971      11.402695    
 9932             9932000   1.190662       84.675406     -0.055353836    0.024009202   -0.031344633            0   6.0276002      16.104139      11.620324    
 9933             9933000   1.3895306      98.074537     -0.062675832    0.028019306   -0.034656527            0   5.958982       15.791795      11.503553    
 9934             9934000   0.29979124     17.015276     -0.050177478    0.0060451652  -0.044132313            0   5.8681245      15.806541      11.727612    
 9935             9935000   0.62814732     47.446252     -0.049702094    0.012666328   -0.037035766            0   5.828009       15.912917      11.837883    
 9936             9936000   0.74608232     46.277255     -0.04564171     0.015044439   -0.030597272            0   5.8610762      15.648547      11.973231    
 9937             9937000   0.75640454     39.34549      -0.052461226    0.015252582   -0.037208644            0   6.5936832      16.847522      11.824646    
 9938             9938000   0.94733483     29.119739     -0.060262267    0.019102611   -0.041159655            0   6.4782057      17.455133      11.658955    
 9939             9939000   0.90406325     50.856779     -0.062402889    0.018230058   -0.044172831            0   6.8762483      17.338718      11.531034    
 9940             9940000   0.85876372     57.884476     -0.056046284    0.017316612   -0.038729673            0   6.4335054      17.689364      11.652669    
 9941             9941000   1.3282597      67.513742     -0.057245307    0.026783803   -0.030461504            0   7.1972435      17.289491      11.612357    
 9942             9942000   1.1788389      62.346907     -0.059133544    0.023770794   -0.03536275             0   6.4316611      17.272955      11.618549    
 9943             9943000   0.36977062     15.14897      -0.047479602    0.0074562703  -0.040023332            0   5.7803452      15.470745      11.472726    
 9944             9944000   0.26319984     11.867841     -0.062598469    0.0053073148  -0.057291154            0   5.7531276      15.921402      11.401861    
 9945             9945000   0.66943573     40.027107     -0.054113855    0.013498892   -0.040614963            0   6.262784       15.24672       11.680786    
 9946             9946000   1.1665604      62.938972     -0.062667439    0.023523204   -0.039144235            0   6.544973       14.508584      11.614167    
 9947             9947000   1.0100146      50.381315     -0.047990076    0.020366524   -0.027623552            0   6.5824485      14.688142      11.558987    
 9948             9948000   0.81604767     56.706211     -0.013658841    0.016455261    0.0027964196           0   6.1314201      14.234013      11.657606    
 9949             9949000   1.1175595      53.020608     -0.039647963    0.022535122   -0.017112841            0   6.6294966      14.402754      11.710107    
 9950             9950000   1.7121771      106.65863     -0.064345984    0.034525337   -0.029820647            0   6.7461966      14.362554      11.46897     
 9951             9951000   1.0165832      53.013351     -0.05192266     0.020498975   -0.031423685            0   6.9711845      14.560713      11.815125    
 9952             9952000   1.3024493      70.090149     -0.048331713    0.026263347   -0.022068366            0   5.8504868      16.246504      11.648523    
 9953             9953000   1.8093638      133.05376     -0.055485532    0.036485066   -0.019000466            0   6.3671611      16.752328      11.834825    
 9954             9954000   1.2756509      96.32322      -0.054990961    0.025722969   -0.029267992            0   6.6271599      17.40988       11.504589    
 9955             9955000   1.4185363      108.56181     -0.05064858     0.028604192   -0.022044388            0   6.6887724      17.315086      11.341919    
 9956             9956000   0.48514748     23.599628     -0.062329221    0.0097827964  -0.052546424            0   6.6745981      17.293598      11.325605    
 9957             9957000   1.1127181      68.692116     -0.062791766    0.022437496   -0.04035427             0   6.7654294      17.393725      11.61428     
 9958             9958000   1.9974474      146.28835     -0.06152253     0.040277693   -0.021244837            0   6.5217183      16.984167      11.560488    
 9959             9959000   0.72193437     31.942089     -0.058124268    0.014557505   -0.043566763            0   6.7634691      17.47766       11.496107    
 9960             9960000   1.3656745      61.687607     -0.058430229    0.027538256   -0.030891972            0   6.64694        17.149418      11.445148    
 9961             9961000   1.0579032      62.07286      -0.054061642    0.021332177   -0.032729465            0   7.0326443      17.484129      11.743357    
 9962             9962000   1.1751449      20.91938      -0.056641288    0.023696307   -0.032944981            0   8.2082114      17.280234      11.529084    
 9963             9963000   0.51848103     32.087205     -0.049425005    0.010454954   -0.038970051            0   8.4350748      17.106993      11.626781    
 9964             9964000   0.89702196     53.09685      -0.042933832    0.018088073   -0.024845758            0   8.2457898      17.126012      11.571241    
 9965             9965000   0.94855984     37.29991      -0.04753821     0.019127313   -0.028410897            0   8.581851       17.715203      11.73873     
 9966             9966000   1.9317769      62.869649     -0.059104021    0.038953475   -0.020150546            0   9.2418122      18.738317      11.621408    
 9967             9967000   0.60448957     25.031021     -0.064892772    0.01218928    -0.052703492            0   9.0378632      18.605987      11.582636    
 9968             9968000   0.24336883     10.557136     -0.06155698     0.0049074308  -0.056649549            0   9.1238816      19.090591      11.61015     
 9969             9969000   0.38829866     28.355639     -0.049651213    0.0078298804  -0.041821332            0   9.309001       18.880943      11.817248    
 9970             9970000   0.35512662     23.985503     -0.065653208    0.00716098    -0.058492228            0   9.2174991      18.704987      11.553644    
 9971             9971000   0.8322293      31.643793     -0.057590851    0.016781557   -0.040809295            0   9.4714494      18.821852      11.557868    
 9972             9972000   1.2907223      50.306773     -0.064914597    0.026026877   -0.038887719            0   9.2695178      18.705671      11.496075    
 9973             9973000   0.75456514     38.381275     -0.058800105    0.015215491   -0.043584614            0   9.1000454      18.732587      11.39177     
 9974             9974000   0.26770258     17.492601     -0.044006363    0.0053981107  -0.038608252            0   9.1742716      18.32213       11.666205    
 9975             9975000   0.79957748     19.106281     -0.063515184    0.016123146   -0.047392038            0   9.2434834      18.742846      11.507361    
 9976             9976000   0.77051177     53.356972     -0.05449928     0.015537048   -0.038962231            0   8.324697       19.909575      11.436683    
 9977             9977000   1.264499       94.26494      -0.050428716    0.025498095   -0.024930621            0   8.4554856      19.853597      11.65796     
 9978             9978000   0.9207503      17.008146     -0.03409243     0.018566546   -0.015525885            0   7.2881582      20.009217      11.863583    
 9979             9979000   1.9861612      110.30119     -0.057729292    0.040050112   -0.01767918             0   6.3640621      20.144087      11.518597    
 9980             9980000   1.6249827      55.768021     -0.045348326    0.032767099   -0.012581227            0   8.8217797      22.469022      11.902147    
 9981             9981000   0.53206926     35.129365     -0.04222616     0.010728955   -0.031497205            0   7.1627124      22.775789      11.949827    
 9982             9982000   0.87213468     27.88518      -0.053414854    0.017586232   -0.035828622            0   8.3652172      22.879166      11.466297    
 9983             9983000   0.69637727     35.139968     -0.05834626     0.014042157   -0.044304103            0   8.4055536      23.125503      11.479341    
 9984             9984000   1.8994024      130.40006     -0.060143803    0.038300657   -0.021843146            0   8.5584707      22.748416      11.562158    
 9985             9985000   1.3556912      85.254458     -0.059249334    0.027336946   -0.031912388            0   7.0262903      22.951449      11.554222    
 9986             9986000   0.61162816     21.0987       -0.04820281     0.012333226   -0.035869583            0   6.5283847      22.74574       11.661703    
 9987             9987000   1.2293274      55.710226     -0.057140124    0.024788874   -0.03235125             0   6.7897019      22.997483      11.800994    
 9988             9988000   1.2448079      89.429436     -0.063061171    0.025101032   -0.037960138            0   6.8801988      23.023886      11.57481     
 9989             9989000   1.1013329      76.055702     -0.067515754    0.022207918   -0.045307836            0   6.5575836      23.138467      11.434416    
 9990             9990000   0.67664405     24.953547     -0.052440719    0.013644245   -0.038796474            0   6.9745957      23.144434      11.66233     
 9991             9991000   0.65492636     33.697324     -0.057272847    0.013206317   -0.04406653             0   6.6477282      23.148755      11.526239    
 9992             9992000   0.39728244     25.174959     -0.058388558    0.0080110346  -0.050377524            0   6.5203104      22.739395      11.586922    
 9993             9993000   0.68944812     39.700462     -0.057988433    0.013902434   -0.044086               0   6.9895371      23.077894      11.586511    
 9994             9994000   1.0859402      62.398251     -0.064148676    0.021897531   -0.042251145            0   6.4972087      23.017047      11.569878    
 9995             9995000   1.7834526      68.430227     -0.057084112    0.035962578   -0.021121534            0   6.6665078      23.046897      11.530391    
 9996             9996000   2.3380429      93.410918     -0.064070645    0.047145659   -0.016924986            0   6.7824176      22.944375      11.482169    
 9997             9997000   1.4927194      98.043397     -0.052770469    0.030100064   -0.022670405            0   5.5767676      22.037613      11.779142    
 9998             9998000   0.48716466     28.09721      -0.053831254    0.0098234721  -0.044007782            0   6.0150495      21.69114       11.731696    
 9999             9999000   1.0851423      74.947684     -0.044372295    0.021881441   -0.022490854            0   5.9933996      21.888124      11.711253    
 10000           10000000   0.64751818     38.219914     -0.059192633    0.013056934   -0.046135699            0   5.7260528      21.529427      11.402341    
Loop time of 124.87 on 6 procs for 10000000 steps with 157 atoms

Performance: 6919.189 ns/day, 0.003 hours/ns, 80083.210 timesteps/s, 12.573 Matom-step/s
73.1% CPU use with 6 MPI tasks x no OpenMP threads

MPI task timing breakdown:
Section |  min time  |  avg time  |  max time  |%varavg| %total
---------------------------------------------------------------
Pair    | 2.7356     | 3.8686     | 4.7834     |  31.8 |  3.10
Bond    | 0.56892    | 0.66887    | 0.72276    |   7.1 |  0.54
Neigh   | 2.241      | 2.2939     | 2.3635     |   2.7 |  1.84
Comm    | 89.622     | 93.647     | 96.03      |  23.6 | 75.00
Output  | 0.93623    | 0.96944    | 1.0124     |   2.7 |  0.78
Modify  | 2.0666     | 2.3239     | 2.5585     |  11.2 |  1.86
Other   |            | 21.1       |            |       | 16.90

Nlocal:        26.1667 ave          30 max          22 min
Histogram: 2 0 0 0 0 0 1 2 0 1
Nghost:        384.167 ave         405 max         368 min
Histogram: 1 0 2 1 0 0 0 0 1 1
Neighs:        32.3333 ave         126 max           2 min
Histogram: 3 1 1 0 0 0 0 0 0 1

Total # of neighbors = 194
Ave neighs/atom = 1.2356688
Ave special neighs/atom = 0.038216561
Neighbor list builds = 80616
Dangerous builds = 0
Total wall time: 0:02:04
