152
Lattice="10 0.0 0.0  0.0 10 0.0  0.0 0.0 10"	TIME: 0
B	-4.000000	-4.100000	-4.000000	0.000000e+00	0.000000e+00	0.000000e+00	0.000000e+00	0.000000e+00	0.000000e+00
B	-4.000000	-4.000000	-2.000000	0.000000e+00	0.000000e+00	0.000000e+00	0.000000e+00	0.000000e+00	0.000000e+00
B	-4.000000	-2.000000	-2.100000	0.000000e+00	0.000000e+00	0.000000e+00	0.000000e+00	0.000000e+00	0.000000e+00
B	-2.000000	-2.000000	-2.000000	0.000000e+00	0.000000e+00	0.000000e+00	0.000000e+00	0.000000e+00	0.000000e+00
B	-2.000000	-2.000000	0.000000	0.000000e+00	0.000000e+00	0.000000e+00	0.000000e+00	0.000000e+00	0.000000e+00
B	-2.000000	0.100000	0.000000	0.000000e+00	0.000000e+00	0.000000e+00	0.000000e+00	0.000000e+00	0.000000e+00
B	0.000000	0.000000	0.000000	0.000000e+00	0.000000e+00	0.000000e+00	0.000000e+00	0.000000e+00	0.000000e+00
B	0.000000	2.000000	0.000000	0.000000e+00	0.000000e+00	0.000000e+00	0.000000e+00	0.000000e+00	0.000000e+00
B	2.000000	2.000000	0.000000	0.000000e+00	0.000000e+00	0.000000e+00	0.000000e+00	0.000000e+00	0.000000e+00
B	2.000000	2.000000	2.000000	0.000000e+00	0.000000e+00	0.000000e+00	0.000000e+00	0.000000e+00	0.000000e+00
B	4.000000	2.000000	2.100000	0.000000e+00	0.000000e+00	0.000000e+00	0.000000e+00	0.000000e+00	0.000000e+00
B	4.000000	2.000000	4.000000	0.000000e+00	0.000000e+00	0.000000e+00	0.000000e+00	0.000000e+00	0.000000e+00
S	-1.409050	0.524850	0.794300	0.000000e+00	0.000000e+00	0.000000e+00	0.000000e+00	0.000000e+00	0.000000e+00
S	0.308080	2.572940	-1.957050	0.000000e+00	0.000000e+00	0.000000e+00	0.000000e+00	0.000000e+00	0.000000e+00
S	2.478090	1.289100	-4.645790	0.000000e+00	0.000000e+00	0.000000e+00	0.000000e+00	0.000000e+00	0.000000e+00
S	3.732710	3.310380	4.794340	0.000000e+00	0.000000e+00	0.000000e+00	0.000000e+00	0.000000e+00	0.000000e+00
S	1.668800	-0.027410	-3.360320	0.000000e+00	0.000000e+00	0.000000e+00	0.000000e+00	0.000000e+00	0.000000e+00
S	1.497070	-2.519560	1.294800	0.000000e+00	0.000000e+00	0.000000e+00	0.000000e+00	0.000000e+00	0.000000e+00
S	-1.712230	-2.685720	-4.258390	0.000000e+00	0.000000e+00	0.000000e+00	0.000000e+00	0.000000e+00	0.000000e+00
S	0.106860	4.714660	-2.199580	0.000000e+00	0.000000e+00	0.000000e+00	0.000000e+00	0.000000e+00	0.000000e+00
S	-0.285170	0.925400	4.443180	0.000000e+00	0.000000e+00	0.000000e+00	0.000000e+00	0.000000e+00	0.000000e+00
S	-0.654870	-4.967690	-1.550570	0.000000e+00	0.000000e+00	0.000000e+00	0.000000e+00	0.000000e+00	0.000000e+00
S	1.754760	-0.170500	-0.180640	0.000000e+00	0.000000e+00	0.000000e+00	0.000000e+00	0.000000e+00	0.000000e+00
S	1.218230	-4.591360	-0.860160	0.000000e+00	0.000000e+00	0.000000e+00	0.000000e+00	0.000000e+00	0.000000e+00
S	-1.528840	-3.153780	1.091060	0.000000e+00	0.000000e+00	0.000000e+00	0.000000e+00	0.000000e+00	0.000000e+00
S	2.404380	-2.977870	4.209140	0.000000e+00	0.000000e+00	0.000000e+00	0.000000e+00	0.000000e+00	0.000000e+00
S	0.324410	-4.123560	-2.395030	0.000000e+00	0.000000e+00	0.000000e+00	0.000000e+00	0.000000e+00	0.000000e+00
S	-3.887240	-1.383990	0.766910	0.000000e+00	0.000000e+00	0.000000e+00	0.000000e+00	0.000000e+00	0.000000e+00
S	2.757670	-2.116210	-1.703580	0.000000e+00	0.000000e+00	0.000000e+00	0.000000e+00	0.000000e+00	0.000000e+00
S	3.273910	-1.685210	-3.117990	0.000000e+00	0.000000e+00	0.000000e+00	0.000000e+00	0.000000e+00	0.000000e+00
S	2.648710	1.990750	-3.788570	0.000000e+00	0.000000e+00	0.000000e+00	0.000000e+00	0.000000e+00	0.000000e+00
S	4.430510	4.162730	3.619170	0.000000e+00	0.000000e+00	0.000000e+00	0.000000e+00	0.000000e+00	0.000000e+00
S	-2.027120	4.049320	4.096430	0.000000e+00	0.000000e+00	0.000000e+00	0.000000e+00	0.000000e+00	0.000000e+00
S	-3.372430	-2.260890	3.645790	0.000000e+00	0.000000e+00	0.000000e+00	0.000000e+00	0.000000e+00	0.000000e+00
S	-0.040230	-2.089470	-3.195790	0.000000e+00	0.000000e+00	0.000000e+00	0.000000e+00	0.000000e+00	0.000000e+00
S	1.031090	-0.075780	3.381340	0.000000e+00	0.000000e+00	0.000000e+00	0.000000e+00	0.000000e+00	0.000000e+00
S	-0.014750	-3.787410	-3.617620	0.000000e+00	0.000000e+00	0.000000e+00	0.000000e+00	0.000000e+00	0.000000e+00
S	4.084850	1.220950	3.368280	0.000000e+00	0.000000e+00	0.000000e+00	0.000000e+00	0.000000e+00	0.000000e+00
S	-1.056730	1.588310	1.088830	0.000000e+00	0.000000e+00	0.000000e+00	0.000000e+00	0.000000e+00	0.000000e+00
S	-3.921520	1.472070	-1.364020	0.000000e+00	0.000000e+00	0.000000e+00	0.000000e+00	0.000000e+00	0.000000e+00
S	-0.726720	4.344950	0.835700	0.000000e+00	0.000000e+00	0.000000e+00	0.000000e+00	0.000000e+00	0.000000e+00
S	-0.125730	-3.427280	3.830370	0.000000e+00	0.000000e+00	0.000000e+00	0.000000e+00	0.000000e+00	0.000000e+00
S	0.575610	-0.738010	3.299390	0.000000e+00	0.000000e+00	0.000000e+00	0.000000e+00	0.000000e+00	0.000000e+00
S	2.293600	1.386540	4.848450	0.000000e+00	0.000000e+00	0.000000e+00	0.000000e+00	0.000000e+00	0.000000e+00
S	-0.892120	-4.945910	2.832820	0.000000e+00	0.000000e+00	0.000000e+00	0.000000e+00	0.000000e+00	0.000000e+00
S	3.655350	2.210060	-4.508380	0.000000e+00	0.000000e+00	0.000000e+00	0.000000e+00	0.000000e+00	0.000000e+00
S	-2.891170	-0.261060	3.651810	0.000000e+00	0.000000e+00	0.000000e+00	0.000000e+00	0.000000e+00	0.000000e+00
S	-1.982370	1.571200	3.090950	0.000000e+00	0.000000e+00	0.000000e+00	0.000000e+00	0.000000e+00	0.000000e+00
S	-0.422840	2.808680	1.920760	0.000000e+00	0.000000e+00	0.000000e+00	0.000000e+00	0.000000e+00	0.000000e+00
S	0.786350	0.298990	0.950450	0.000000e+00	0.000000e+00	0.000000e+00	0.000000e+00	0.000000e+00	0.000000e+00
S	-0.234150	-3.301800	1.097290	0.000000e+00	0.000000e+00	0.000000e+00	0.000000e+00	0.000000e+00	0.000000e+00
S	-2.663440	3.298080	-4.299100	0.000000e+00	0.000000e+00	0.000000e+00	0.000000e+00	0.000000e+00	0.000000e+00
S	-0.182670	-2.745090	3.267690	0.000000e+00	0.000000e+00	0.000000e+00	0.000000e+00	0.000000e+00	0.000000e+00
S	-1.557490	3.149090	1.591460	0.000000e+00	0.000000e+00	0.000000e+00	0.000000e+00	0.000000e+00	0.000000e+00
S	1.259640	3.361040	-1.918430	0.000000e+00	0.000000e+00	0.000000e+00	0.000000e+00	0.000000e+00	0.000000e+00
S	-3.902670	1.746050	2.822620	0.000000e+00	0.000000e+00	0.000000e+00	0.000000e+00	0.000000e+00	0.000000e+00
S	-1.843420	-0.659910	-2.690040	0.000000e+00	0.000000e+00	0.000000e+00	0.000000e+00	0.000000e+00	0.000000e+00
S	0.553980	-4.854210	-1.197850	0.000000e+00	0.000000e+00	0.000000e+00	0.000000e+00	0.000000e+00	0.000000e+00
S	-2.395550	1.496590	0.523160	0.000000e+00	0.000000e+00	0.000000e+00	0.000000e+00	0.000000e+00	0.000000e+00
S	1.978480	-1.880500	1.458890	0.000000e+00	0.000000e+00	0.000000e+00	0.000000e+00	0.000000e+00	0.000000e+00
S	1.484470	1.426930	0.185150	0.000000e+00	0.000000e+00	0.000000e+00	0.000000e+00	0.000000e+00	0.000000e+00
S	3.018970	1.778120	-3.471240	0.000000e+00	0.000000e+00	0.000000e+00	0.000000e+00	0.000000e+00	0.000000e+00
S	-3.123840	1.189580	2.003010	0.000000e+00	0.000000e+00	0.000000e+00	0.000000e+00	0.000000e+00	0.000000e+00
S	-1.947610	-2.384300	1.553680	0.000000e+00	0.000000e+00	0.000000e+00	0.000000e+00	0.000000e+00	0.000000e+00
S	1.673410	3.790090	1.533050	0.000000e+00	0.000000e+00	0.000000e+00	0.000000e+00	0.000000e+00	0.000000e+00
S	-3.428610	0.034610	3.289570	0.000000e+00	0.000000e+00	0.000000e+00	0.000000e+00	0.000000e+00	0.000000e+00
S	-1.054790	2.060670	3.689240	0.000000e+00	0.000000e+00	0.000000e+00	0.000000e+00	0.000000e+00	0.000000e+00
S	-2.668810	4.265760	0.514430	0.000000e+00	0.000000e+00	0.000000e+00	0.000000e+00	0.000000e+00	0.000000e+00
S	4.391290	2.996460	3.141390	0.000000e+00	0.000000e+00	0.000000e+00	0.000000e+00	0.000000e+00	0.000000e+00
S	4.358520	-1.754590	3.743090	0.000000e+00	0.000000e+00	0.000000e+00	0.000000e+00	0.000000e+00	0.000000e+00
S	2.754210	2.949100	-2.372150	0.000000e+00	0.000000e+00	0.000000e+00	0.000000e+00	0.000000e+00	0.000000e+00
S	2.954900	3.650860	3.730210	0.000000e+00	0.000000e+00	0.000000e+00	0.000000e+00	0.000000e+00	0.000000e+00
S	0.968990	1.456010	0.385570	0.000000e+00	0.000000e+00	0.000000e+00	0.000000e+00	0.000000e+00	0.000000e+00
S	2.009100	0.181510	3.326090	0.000000e+00	0.000000e+00	0.000000e+00	0.000000e+00	0.000000e+00	0.000000e+00
S	0.103490	-4.515000	3.143510	0.000000e+00	0.000000e+00	0.000000e+00	0.000000e+00	0.000000e+00	0.000000e+00
S	-3.560180	-0.869220	-2.529670	0.000000e+00	0.000000e+00	0.000000e+00	0.000000e+00	0.000000e+00	0.000000e+00
S	0.737210	3.129470	0.826820	0.000000e+00	0.000000e+00	0.000000e+00	0.000000e+00	0.000000e+00	0.000000e+00
S	-4.412770	-4.257400	1.407660	0.000000e+00	0.000000e+00	0.000000e+00	0.000000e+00	0.000000e+00	0.000000e+00
S	1.302430	4.235130	2.379390	0.000000e+00	0.000000e+00	0.000000e+00	0.000000e+00	0.000000e+00	0.000000e+00
S	4.526620	4.489110	3.990860	0.000000e+00	0.000000e+00	0.000000e+00	0.000000e+00	0.000000e+00	0.000000e+00
S	-1.808640	-0.224490	4.498200	0.000000e+00	0.000000e+00	0.000000e+00	0.000000e+00	0.000000e+00	0.000000e+00
S	-3.162350	-0.419610	2.802240	0.000000e+00	0.000000e+00	0.000000e+00	0.000000e+00	0.000000e+00	0.000000e+00
S	2.616120	4.635050	-1.681540	0.000000e+00	0.000000e+00	0.000000e+00	0.000000e+00	0.000000e+00	0.000000e+00
S	1.221670	-3.089720	-0.220390	0.000000e+00	0.000000e+00	0.000000e+00	0.000000e+00	0.000000e+00	0.000000e+00
S	-2.893080	1.065420	3.654340	0.000000e+00	0.000000e+00	0.000000e+00	0.000000e+00	0.000000e+00	0.000000e+00
S	1.465200	0.926920	1.765540	0.000000e+00	0.000000e+00	0.000000e+00	0.000000e+00	0.000000e+00	0.000000e+00
S	0.636170	-2.573740	-4.810890	0.000000e+00	0.000000e+00	0.000000e+00	0.000000e+00	0.000000e+00	0.000000e+00
S	1.014270	2.706860	3.871970	0.000000e+00	0.000000e+00	0.000000e+00	0.000000e+00	0.000000e+00	0.000000e+00
S	-0.122790	2.952310	1.390090	0.000000e+00	0.000000e+00	0.000000e+00	0.000000e+00	0.000000e+00	0.000000e+00
S	3.822040	-1.339720	3.994310	0.000000e+00	0.000000e+00	0.000000e+00	0.000000e+00	0.000000e+00	0.000000e+00
S	4.466400	-3.776740	3.656790	0.000000e+00	0.000000e+00	0.000000e+00	0.000000e+00	0.000000e+00	0.000000e+00
S	-3.159340	-2.177160	-3.328350	0.000000e+00	0.000000e+00	0.000000e+00	0.000000e+00	0.000000e+00	0.000000e+00
S	-3.733310	-2.724480	4.469250	0.000000e+00	0.000000e+00	0.000000e+00	0.000000e+00	0.000000e+00	0.000000e+00
S	-0.381520	1.485450	4.152210	0.000000e+00	0.000000e+00	0.000000e+00	0.000000e+00	0.000000e+00	0.000000e+00
S	-1.062540	-0.035690	-0.634150	0.000000e+00	0.000000e+00	0.000000e+00	0.000000e+00	0.000000e+00	0.000000e+00
S	0.661640	-3.092910	-4.652840	0.000000e+00	0.000000e+00	0.000000e+00	0.000000e+00	0.000000e+00	0.000000e+00
S	-1.436170	4.979700	-4.643340	0.000000e+00	0.000000e+00	0.000000e+00	0.000000e+00	0.000000e+00	0.000000e+00
S	4.997870	-1.723840	3.893430	0.000000e+00	0.000000e+00	0.000000e+00	0.000000e+00	0.000000e+00	0.000000e+00
S	2.667010	3.033300	1.987130	0.000000e+00	0.000000e+00	0.000000e+00	0.000000e+00	0.000000e+00	0.000000e+00
S	2.524790	-2.020670	3.093710	0.000000e+00	0.000000e+00	0.000000e+00	0.000000e+00	0.000000e+00	0.000000e+00
S	-3.985460	-3.427250	-2.558510	0.000000e+00	0.000000e+00	0.000000e+00	0.000000e+00	0.000000e+00	0.000000e+00
S	3.895530	4.455020	-4.439780	0.000000e+00	0.000000e+00	0.000000e+00	0.000000e+00	0.000000e+00	0.000000e+00
S	0.870110	-3.311630	0.845850	0.000000e+00	0.000000e+00	0.000000e+00	0.000000e+00	0.000000e+00	0.000000e+00
S	0.265230	0.822500	2.293980	0.000000e+00	0.000000e+00	0.000000e+00	0.000000e+00	0.000000e+00	0.000000e+00
S	0.381750	-4.833490	4.315180	0.000000e+00	0.000000e+00	0.000000e+00	0.000000e+00	0.000000e+00	0.000000e+00
S	-0.990150	-1.928320	1.799040	0.000000e+00	0.000000e+00	0.000000e+00	0.000000e+00	0.000000e+00	0.000000e+00
S	2.031860	-1.671080	-2.854760	0.000000e+00	0.000000e+00	0.000000e+00	0.000000e+00	0.000000e+00	0.000000e+00
S	-4.838230	3.451230	3.524110	0.000000e+00	0.000000e+00	0.000000e+00	0.000000e+00	0.000000e+00	0.000000e+00
S	0.268300	3.480000	-2.497900	0.000000e+00	0.000000e+00	0.000000e+00	0.000000e+00	0.000000e+00	0.000000e+00
S	3.898130	1.114110	0.310330	0.000000e+00	0.000000e+00	0.000000e+00	0.000000e+00	0.000000e+00	0.000000e+00
S	-1.560410	-1.400580	-4.560850	0.000000e+00	0.000000e+00	0.000000e+00	0.000000e+00	0.000000e+00	0.000000e+00
S	-2.071140	2.082620	3.201460	0.000000e+00	0.000000e+00	0.000000e+00	0.000000e+00	0.000000e+00	0.000000e+00
S	-3.090160	-0.163520	4.233810	0.000000e+00	0.000000e+00	0.000000e+00	0.000000e+00	0.000000e+00	0.000000e+00
S	2.113550	1.112410	-4.071420	0.000000e+00	0.000000e+00	0.000000e+00	0.000000e+00	0.000000e+00	0.000000e+00
S	-0.240530	2.572820	2.775050	0.000000e+00	0.000000e+00	0.000000e+00	0.000000e+00	0.000000e+00	0.000000e+00
S	2.437270	4.225720	-4.035960	0.000000e+00	0.000000e+00	0.000000e+00	0.000000e+00	0.000000e+00	0.000000e+00
S	-2.251030	-2.606790	3.097430	0.000000e+00	0.000000e+00	0.000000e+00	0.000000e+00	0.000000e+00	0.000000e+00
S	-3.266990	4.377140	2.608620	0.000000e+00	0.000000e+00	0.000000e+00	0.000000e+00	0.000000e+00	0.000000e+00
S	-1.584600	1.924630	-0.434860	0.000000e+00	0.000000e+00	0.000000e+00	0.000000e+00	0.000000e+00	0.000000e+00
S	1.004920	-3.700240	-4.187350	0.000000e+00	0.000000e+00	0.000000e+00	0.000000e+00	0.000000e+00	0.000000e+00
S	-3.855410	3.806830	0.824500	0.000000e+00	0.000000e+00	0.000000e+00	0.000000e+00	0.000000e+00	0.000000e+00
S	-1.876570	4.432220	2.682060	0.000000e+00	0.000000e+00	0.000000e+00	0.000000e+00	0.000000e+00	0.000000e+00
S	-1.007000	-2.884350	-0.473500	0.000000e+00	0.000000e+00	0.000000e+00	0.000000e+00	0.000000e+00	0.000000e+00
S	-4.945650	1.497870	-3.737780	0.000000e+00	0.000000e+00	0.000000e+00	0.000000e+00	0.000000e+00	0.000000e+00
S	2.859320	1.846770	4.102270	0.000000e+00	0.000000e+00	0.000000e+00	0.000000e+00	0.000000e+00	0.000000e+00
S	0.270750	-3.228670	4.278660	0.000000e+00	0.000000e+00	0.000000e+00	0.000000e+00	0.000000e+00	0.000000e+00
S	-1.384090	2.003400	0.394130	0.000000e+00	0.000000e+00	0.000000e+00	0.000000e+00	0.000000e+00	0.000000e+00
S	4.215510	-2.782740	2.892440	0.000000e+00	0.000000e+00	0.000000e+00	0.000000e+00	0.000000e+00	0.000000e+00
S	3.079590	-1.126770	2.472770	0.000000e+00	0.000000e+00	0.000000e+00	0.000000e+00	0.000000e+00	0.000000e+00
S	2.144320	1.352040	0.161390	0.000000e+00	0.000000e+00	0.000000e+00	0.000000e+00	0.000000e+00	0.000000e+00
S	1.718410	-4.705240	2.559450	0.000000e+00	0.000000e+00	0.000000e+00	0.000000e+00	0.000000e+00	0.000000e+00
S	-3.041020	2.774100	3.442810	0.000000e+00	0.000000e+00	0.000000e+00	0.000000e+00	0.000000e+00	0.000000e+00
S	-1.870100	-3.944240	3.884330	0.000000e+00	0.000000e+00	0.000000e+00	0.000000e+00	0.000000e+00	0.000000e+00
S	-3.002760	-3.122640	1.576430	0.000000e+00	0.000000e+00	0.000000e+00	0.000000e+00	0.000000e+00	0.000000e+00
S	2.784630	4.363490	-3.578810	0.000000e+00	0.000000e+00	0.000000e+00	0.000000e+00	0.000000e+00	0.000000e+00
S	3.734140	-2.671520	1.739960	0.000000e+00	0.000000e+00	0.000000e+00	0.000000e+00	0.000000e+00	0.000000e+00
S	2.733010	-4.715470	0.904070	0.000000e+00	0.000000e+00	0.000000e+00	0.000000e+00	0.000000e+00	0.000000e+00
S	-2.157110	-4.232470	3.800090	0.000000e+00	0.000000e+00	0.000000e+00	0.000000e+00	0.000000e+00	0.000000e+00
S	-0.569570	-1.212900	1.475220	0.000000e+00	0.000000e+00	0.000000e+00	0.000000e+00	0.000000e+00	0.000000e+00
S	1.076000	-3.958260	3.057890	0.000000e+00	0.000000e+00	0.000000e+00	0.000000e+00	0.000000e+00	0.000000e+00
S	-1.057610	-2.278110	0.996440	0.000000e+00	0.000000e+00	0.000000e+00	0.000000e+00	0.000000e+00	0.000000e+00
S	3.812320	1.748500	-0.393480	0.000000e+00	0.000000e+00	0.000000e+00	0.000000e+00	0.000000e+00	0.000000e+00
S	-2.539290	0.767210	-1.988310	0.000000e+00	0.000000e+00	0.000000e+00	0.000000e+00	0.000000e+00	0.000000e+00
S	-0.141340	-3.075140	3.588660	0.000000e+00	0.000000e+00	0.000000e+00	0.000000e+00	0.000000e+00	0.000000e+00
S	-4.971720	4.007720	-2.112480	0.000000e+00	0.000000e+00	0.000000e+00	0.000000e+00	0.000000e+00	0.000000e+00
S	-3.245870	-4.552710	4.597160	0.000000e+00	0.000000e+00	0.000000e+00	0.000000e+00	0.000000e+00	0.000000e+00
S	-2.927430	4.941960	0.361150	0.000000e+00	0.000000e+00	0.000000e+00	0.000000e+00	0.000000e+00	0.000000e+00
S	3.923240	2.119060	-0.947330	0.000000e+00	0.000000e+00	0.000000e+00	0.000000e+00	0.000000e+00	0.000000e+00
S	1.736480	-1.761480	-1.528040	0.000000e+00	0.000000e+00	0.000000e+00	0.000000e+00	0.000000e+00	0.000000e+00
S	3.970550	3.441130	-2.645650	0.000000e+00	0.000000e+00	0.000000e+00	0.000000e+00	0.000000e+00	0.000000e+00
S	-4.075060	-0.365580	4.412430	0.000000e+00	0.000000e+00	0.000000e+00	0.000000e+00	0.000000e+00	0.000000e+00
S	-2.852590	-2.219950	-0.515770	1.084000e+01	0.000000e+00	0.000000e+00	0.000000e+00	0.000000e+00	0.000000e+00
152
Lattice="10 0.0 0.0  0.0 10 0.0  0.0 0.0 10"	TIME: 1
B	-4.000000	-4.099992	-3.999846	-7.925749e-09	1.799120e-05	3.661481e-04	-3.049363e-06	2.845928e-03	5.934402e-02
B	-4.000103	-4.003905	-1.996207	-2.008455e-04	-7.547242e-03	7.329648e-03	-1.814321e-02	-6.535135e-01	6.344406e-01
B	-3.999877	-2.000158	-2.099986	2.415821e-04	-3.827524e-04	3.152034e-05	2.262418e-02	-6.423520e-02	4.461567e-03
B	-2.000123	-1.999999	-1.999732	-2.415007e-04	3.559248e-06	8.762550e-04	-2.260011e-02	1.241596e-03	1.896813e-01
B	-1.999792	-1.986843	0.019307	1.494853e-03	2.040992e-02	2.512053e-02	5.536703e-01	1.092782e+01	2.337822e+01
B	-1.999879	0.095193	0.000012	2.338508e-04	-9.305458e-03	3.820471e-05	2.023685e-02	-8.221797e-01	7.610512e-03
B	-0.000121	0.000006	0.000000	-2.334012e-04	1.128863e-05	3.104978e-10	-2.020234e-02	9.019011e-04	1.230957e-07
B	-0.000015	2.000000	0.000000	-4.912416e-05	-2.147132e-07	1.069055e-07	-8.059361e-03	-6.832551e-05	3.263259e-05
B	1.998910	2.031758	-0.008094	9.527911e-05	5.665278e-02	-1.414342e-02	6.161592e-01	3.440785e+00	-7.317535e-01
B	2.000121	2.000000	1.999932	2.332140e-04	2.800844e-06	-2.774304e-04	2.013460e-02	1.308887e-03	-8.180125e-02
B	3.999879	2.000000	2.095077	-2.335522e-04	7.611799e-12	-9.681270e-03	-2.024152e-02	4.919385e-09	-9.025570e-01
B	4.000000	2.000000	4.004917	2.013729e-07	-5.319480e-16	9.669783e-03	5.702164e-05	-4.691866e-13	9.015967e-01
S	-1.409050	0.524850	0.794300	0.000000e+00	0.000000e+00	0.000000e+00	0.000000e+00	0.000000e+00	0.000000e+00
S	0.308080	2.572940	-1.957050	0.000000e+00	0.000000e+00	0.000000e+00	0.000000e+00	0.000000e+00	0.000000e+00
S	2.551717	1.267290	-4.516736	1.105829e-01	-1.967573e-02	1.380775e-01	5.353516e+00	1.754204e+00	-4.852100e+00
S	3.732710	3.310380	4.794340	0.000000e+00	0.000000e+00	0.000000e+00	0.000000e+00	0.000000e+00	0.000000e+00
S	1.668800	-0.027410	-3.360320	0.000000e+00	0.000000e+00	0.000000e+00	0.000000e+00	0.000000e+00	0.000000e+00
S	1.494393	-2.523113	1.293888	-5.247420e-03	-6.965822e-03	-1.788598e-03	-4.837496e-01	-6.421657e-01	-1.648875e-01
S	-1.712230	-2.685720	-4.258390	0.000000e+00	0.000000e+00	0.000000e+00	0.000000e+00	0.000000e+00	0.000000e+00
S	0.106860	4.714660	-2.199580	0.000000e+00	0.000000e+00	0.000000e+00	0.000000e+00	0.000000e+00	0.000000e+00
S	-0.277238	0.879280	4.467141	1.259094e-02	-7.323092e-02	3.804444e-02	3.942437e-01	-2.298306e+00	1.193739e+00
S	-0.654870	-4.967690	-1.550570	0.000000e+00	0.000000e+00	0.000000e+00	0.000000e+00	0.000000e+00	0.000000e+00
S	1.754760	-0.170500	-0.180640	0.000000e+00	0.000000e+00	0.000000e+00	0.000000e+00	0.000000e+00	0.000000e+00
S	1.223672	-4.589207	-0.857393	1.057051e-02	4.182849e-03	5.373811e-03	9.377973e-01	3.710953e-01	4.767554e-01
S	-1.528845	-3.154652	1.090850	-1.024635e-05	-1.741868e-03	-4.187120e-04	-1.267671e-03	-1.729525e-01	-4.128996e-02
S	2.404380	-2.977870	4.209140	0.000000e+00	0.000000e+00	0.000000e+00	0.000000e+00	0.000000e+00	0.000000e+00
S	0.324410	-4.123560	-2.395030	0.000000e+00	0.000000e+00	0.000000e+00	0.000000e+00	0.000000e+00	0.000000e+00
S	-3.887240	-1.383990	0.766910	0.000000e+00	0.000000e+00	0.000000e+00	0.000000e+00	0.000000e+00	0.000000e+00
S	2.757670	-2.116210	-1.703580	0.000000e+00	0.000000e+00	0.000000e+00	0.000000e+00	0.000000e+00	0.000000e+00
S	3.273910	-1.685210	-3.117990	0.000000e+00	0.000000e+00	0.000000e+00	0.000000e+00	0.000000e+00	0.000000e+00
S	2.512328	2.069070	-3.905455	-1.630289e-01	9.362297e-02	-1.397234e-01	-1.662838e-01	9.549214e-02	-1.425129e-01
S	4.378612	3.987358	3.419257	-5.937502e-02	-1.987239e-01	-2.269627e-01	-1.355007e-01	9.264714e-02	-1.817060e-02
S	-2.027120	4.049320	4.096430	0.000000e+00	0.000000e+00	0.000000e+00	0.000000e+00	0.000000e+00	0.000000e+00
S	-3.372430	-2.260890	3.645790	0.000000e+00	0.000000e+00	0.000000e+00	0.000000e+00	0.000000e+00	0.000000e+00
S	-0.040230	-2.089470	-3.195790	0.000000e+00	0.000000e+00	0.000000e+00	0.000000e+00	0.000000e+00	0.000000e+00
S	1.033968	-0.071596	3.381858	5.626278e-03	8.180140e-03	1.012280e-03	5.129752e-01	7.458232e-01	9.229454e-02
S	-0.014750	-3.787410	-3.617620	0.000000e+00	0.000000e+00	0.000000e+00	0.000000e+00	0.000000e+00	0.000000e+00
S	4.084850	1.220950	3.368280	0.000000e+00	0.000000e+00	0.000000e+00	0.000000e+00	0.000000e+00	0.000000e+00
S	-1.055898	1.587255	1.090595	1.656165e-03	-2.101782e-03	3.512440e-03	1.626218e-01	-2.067286e-01	3.444678e-01
S	-3.921520	1.472070	-1.364020	0.000000e+00	0.000000e+00	0.000000e+00	0.000000e+00	0.000000e+00	0.000000e+00
S	-0.726720	4.344950	0.835700	0.000000e+00	0.000000e+00	0.000000e+00	0.000000e+00	0.000000e+00	0.000000e+00
S	-0.131247	-4.105899	4.242430	-1.405182e-02	-7.282570e-01	4.305531e-01	-1.988301e-01	2.820045e-01	-2.819732e-02
S	0.572732	-0.742194	3.298872	-5.626278e-03	-8.180140e-03	-1.012280e-03	-5.129752e-01	-7.458232e-01	-9.229454e-02
S	2.237349	1.416013	4.695157	-7.023622e-02	3.639782e-02	-1.900655e-01	-2.881638e-01	1.989769e-02	-3.768012e-01
S	-0.892120	-4.945910	2.832820	0.000000e+00	0.000000e+00	0.000000e+00	0.000000e+00	0.000000e+00	0.000000e+00
S	3.655350	2.210060	-4.508380	0.000000e+00	0.000000e+00	0.000000e+00	0.000000e+00	0.000000e+00	0.000000e+00
S	-2.855075	-0.279137	3.602043	6.045652e-02	-3.023886e-02	-7.263304e-02	2.875576e+00	-1.405814e+00	-8.493621e-01
S	-1.949104	1.379547	3.049537	3.966058e-02	-2.284918e-01	-4.937356e-02	3.784761e-02	-2.180469e-01	-4.711659e-02
S	-0.452809	2.794949	1.971526	-4.639553e-02	-2.083256e-02	7.704310e-02	-1.287083e+00	-4.212583e-01	1.566764e+00
S	0.786350	0.298990	0.950450	0.000000e+00	0.000000e+00	0.000000e+00	0.000000e+00	0.000000e+00	0.000000e+00
S	-0.234150	-3.301800	1.097290	0.000000e+00	0.000000e+00	0.000000e+00	0.000000e+00	0.000000e+00	0.000000e+00
S	-2.663440	3.298080	-4.299100	0.000000e+00	0.000000e+00	0.000000e+00	0.000000e+00	0.000000e+00	0.000000e+00
S	-0.253776	-2.216108	2.735992	-7.954474e-02	5.878396e-01	-5.927296e-01	0.000000e+00	0.000000e+00	0.000000e+00
S	-1.557490	3.149090	1.591460	0.000000e+00	0.000000e+00	0.000000e+00	0.000000e+00	0.000000e+00	0.000000e+00
S	1.259640	3.361040	-1.918430	0.000000e+00	0.000000e+00	0.000000e+00	0.000000e+00	0.000000e+00	0.000000e+00
S	-3.902670	1.746050	2.822620	0.000000e+00	0.000000e+00	0.000000e+00	0.000000e+00	0.000000e+00	0.000000e+00
S	-1.843420	-0.659910	-2.690040	0.000000e+00	0.000000e+00	0.000000e+00	0.000000e+00	0.000000e+00	0.000000e+00
S	0.548538	-4.856363	-1.200617	-1.057051e-02	-4.182849e-03	-5.373811e-03	-9.377973e-01	-3.710953e-01	-4.767554e-01
S	-2.395550	1.496590	0.523160	0.000000e+00	0.000000e+00	0.000000e+00	0.000000e+00	0.000000e+00	0.000000e+00
S	1.981157	-1.876947	1.459802	5.247420e-03	6.965822e-03	1.788598e-03	4.837496e-01	6.421657e-01	1.648875e-01
S	1.568001	1.420014	0.130327	5.186614e-02	-7.217397e-03	-7.041684e-02	-1.158550e+01	1.189003e-01	-6.819950e-01
S	3.155352	1.699800	-3.354355	1.630289e-01	-9.362297e-02	1.397234e-01	1.662838e-01	-9.549214e-02	1.425129e-01
S	-3.123840	1.189580	2.003010	0.000000e+00	0.000000e+00	0.000000e+00	0.000000e+00	0.000000e+00	0.000000e+00
S	-1.947844	-2.383871	1.553938	-4.660473e-04	8.566766e-04	5.149274e-04	-4.612505e-02	8.485071e-02	5.097858e-02
S	1.673410	3.790090	1.533050	0.000000e+00	0.000000e+00	0.000000e+00	0.000000e+00	0.000000e+00	0.000000e+00
S	-3.449783	0.053768	3.291939	-3.912721e-02	3.523416e-02	4.567797e-03	-2.734108e+00	2.425401e+00	4.063813e-01
S	-1.055166	2.060987	3.688984	-8.254716e-04	6.850185e-04	-5.581112e-04	-1.116791e-01	8.881690e-02	-7.369185e-02
S	-2.664308	4.253989	0.517098	8.477461e-03	-2.216557e-02	5.024458e-03	6.580727e-01	-1.720628e+00	3.900293e-01
S	4.390757	2.996145	3.141125	-1.063133e-03	-6.274230e-04	-5.280602e-04	-1.051735e-01	-6.203832e-02	-5.222919e-02
S	4.331039	-1.766635	3.727445	-4.313645e-02	-2.325441e-02	-2.828062e-02	-9.317440e-01	-2.004179e+00	-1.897002e+00
S	2.754210	2.949100	-2.372150	0.000000e+00	0.000000e+00	0.000000e+00	0.000000e+00	0.000000e+00	0.000000e+00
S	2.954900	3.650860	3.730210	0.000000e+00	0.000000e+00	0.000000e+00	0.000000e+00	0.000000e+00	0.000000e+00
S	0.822455	1.464307	0.442773	-1.875778e-01	1.064161e-02	7.340389e-02	-9.404666e-01	5.587342e-02	3.941335e-01
S	2.009100	0.181510	3.326090	0.000000e+00	0.000000e+00	0.000000e+00	0.000000e+00	0.000000e+00	0.000000e+00
S	0.103490	-4.515000	3.143510	0.000000e+00	0.000000e+00	0.000000e+00	0.000000e+00	0.000000e+00	0.000000e+00
S	-3.560180	-0.869220	-2.529670	0.000000e+00	0.000000e+00	0.000000e+00	0.000000e+00	0.000000e+00	0.000000e+00
S	0.737219	3.129472	0.826815	1.255145e-04	2.476738e-05	-7.776149e-05	9.537393e-02	1.872019e-02	-5.868116e-02
S	-4.412770	-4.257400	1.407660	0.000000e+00	0.000000e+00	0.000000e+00	0.000000e+00	0.000000e+00	0.000000e+00
S	1.302430	4.235130	2.379390	0.000000e+00	0.000000e+00	0.000000e+00	0.000000e+00	0.000000e+00	0.000000e+00
S	4.578312	4.664650	4.190770	5.867844e-02	1.992655e-01	2.269288e-01	0.000000e+00	0.000000e+00	0.000000e+00
S	-1.808640	-0.224490	4.498200	0.000000e+00	0.000000e+00	0.000000e+00	0.000000e+00	0.000000e+00	0.000000e+00
S	-3.156317	-0.430966	2.788922	1.088860e-02	-2.079918e-02	-2.462993e-02	6.804610e-01	-1.423751e+00	-1.780095e+00
S	2.616120	4.635050	-1.681540	0.000000e+00	0.000000e+00	0.000000e+00	0.000000e+00	0.000000e+00	0.000000e+00
S	1.221670	-3.089800	-0.220362	-8.552185e-08	-1.285397e-04	4.468655e-05	0.000000e+00	0.000000e+00	0.000000e+00
S	-2.893080	1.065420	3.654340	0.000000e+00	0.000000e+00	0.000000e+00	0.000000e+00	0.000000e+00	0.000000e+00
S	1.465200	0.926920	1.765540	0.000000e+00	0.000000e+00	0.000000e+00	0.000000e+00	0.000000e+00	0.000000e+00
S	0.628117	-2.409256	-4.860949	-9.867478e-03	2.017535e-01	-6.139228e-02	-1.747986e-02	3.796423e-01	-1.145489e-01
S	1.014270	2.706860	3.871970	0.000000e+00	0.000000e+00	0.000000e+00	0.000000e+00	0.000000e+00	0.000000e+00
S	-0.093186	2.966478	1.337741	4.544809e-02	2.177592e-02	-8.047006e-02	1.065277e+00	5.348753e-01	-1.986798e+00
S	3.809261	-1.329694	4.000417	-2.481603e-02	1.972623e-02	1.207932e-02	-2.159374e+00	1.808274e+00	1.129691e+00
S	4.466400	-3.776740	3.656790	0.000000e+00	0.000000e+00	0.000000e+00	0.000000e+00	0.000000e+00	0.000000e+00
S	-3.159340	-2.177160	-3.328350	0.000000e+00	0.000000e+00	0.000000e+00	0.000000e+00	0.000000e+00	0.000000e+00
S	-3.733310	-2.724480	4.469250	0.000000e+00	0.000000e+00	0.000000e+00	0.000000e+00	0.000000e+00	0.000000e+00
S	-0.389076	1.531254	4.128506	-1.176546e-02	7.254590e-02	-3.748633e-02	-2.825646e-01	2.209489e+00	-1.120047e+00
S	-1.062540	-0.035690	-0.634150	0.000000e+00	0.000000e+00	0.000000e+00	0.000000e+00	0.000000e+00	0.000000e+00
S	0.666967	-3.253037	-4.606356	1.405069e-03	-1.891049e-01	5.052239e-02	-2.201353e+00	2.561364e+00	-2.637714e+00
S	-1.436170	4.979700	-4.643340	0.000000e+00	0.000000e+00	0.000000e+00	0.000000e+00	0.000000e+00	0.000000e+00
S	5.038131	-1.721821	3.902967	6.795248e-02	3.528175e-03	1.620130e-02	3.091118e+00	1.959044e-01	7.673108e-01
S	2.667010	3.033300	1.987130	0.000000e+00	0.000000e+00	0.000000e+00	0.000000e+00	0.000000e+00	0.000000e+00
S	2.524790	-2.020670	3.093710	0.000000e+00	0.000000e+00	0.000000e+00	0.000000e+00	0.000000e+00	0.000000e+00
S	-3.985357	-3.423194	-2.562465	2.008719e-04	7.912009e-03	-7.715229e-03	1.815349e-02	7.149046e-01	-6.971115e-01
S	3.895530	4.455020	-4.439780	0.000000e+00	0.000000e+00	0.000000e+00	0.000000e+00	0.000000e+00	0.000000e+00
S	0.870110	-3.311630	0.845850	0.000000e+00	0.000000e+00	0.000000e+00	0.000000e+00	0.000000e+00	0.000000e+00
S	0.265230	0.822500	2.293980	0.000000e+00	0.000000e+00	0.000000e+00	0.000000e+00	0.000000e+00	0.000000e+00
S	0.381761	-4.833508	4.315183	1.784077e-04	-2.697771e-04	3.497900e-05	1.988301e-01	-2.820045e-01	2.819732e-02
S	-0.990827	-1.928917	1.801578	-1.345704e-03	-1.188226e-03	5.038552e-03	-1.311710e-01	-1.164667e-01	4.887802e-01
S	2.031860	-1.671080	-2.854760	0.000000e+00	0.000000e+00	0.000000e+00	0.000000e+00	0.000000e+00	0.000000e+00
S	-4.837491	3.451376	3.524378	1.759714e-03	8.588798e-05	5.619411e-04	2.406742e-01	-3.060881e-02	7.039979e-02
S	0.268300	3.480000	-2.497900	0.000000e+00	0.000000e+00	0.000000e+00	0.000000e+00	0.000000e+00	0.000000e+00
S	3.898215	1.113495	0.311011	1.830224e-04	-1.307758e-03	1.445429e-03	2.388298e-02	-1.619085e-01	1.778685e-01
S	-1.560410	-1.400580	-4.560850	0.000000e+00	0.000000e+00	0.000000e+00	0.000000e+00	0.000000e+00	0.000000e+00
S	-2.104406	2.274273	3.242873	-3.966058e-02	2.284918e-01	4.937356e-02	-3.784761e-02	2.180469e-01	4.711659e-02
S	-3.111104	-0.153241	4.294524	-3.206419e-02	1.583746e-02	9.267531e-02	-7.184321e-01	4.269630e-01	2.210417e+00
S	2.096113	1.104702	-4.047117	-4.066817e-02	-1.695318e-02	5.231996e-02	-5.165234e+00	-1.843277e+00	5.324114e+00
S	-0.240173	2.572381	2.776638	8.219256e-04	-9.681306e-04	3.504721e-03	1.264320e-01	-1.323372e-01	4.787152e-01
S	2.379910	4.202970	-4.111450	-7.958168e-02	-3.156371e-02	-1.047350e-01	-8.381255e-01	-3.324175e-01	-1.103032e+00
S	-2.251030	-2.606790	3.097430	0.000000e+00	0.000000e+00	0.000000e+00	0.000000e+00	0.000000e+00	0.000000e+00
S	-3.266990	4.377140	2.608620	0.000000e+00	0.000000e+00	0.000000e+00	0.000000e+00	0.000000e+00	0.000000e+00
S	-1.585238	1.924379	-0.437498	-1.265369e-03	-4.999703e-04	-5.235030e-03	-1.224850e-01	-4.896126e-02	-5.074245e-01
S	1.007646	-3.704597	-4.183775	8.462409e-03	-1.264863e-02	1.086990e-02	2.218833e+00	-2.941006e+00	2.752263e+00
S	-3.855410	3.806830	0.824500	0.000000e+00	0.000000e+00	0.000000e+00	0.000000e+00	0.000000e+00	0.000000e+00
S	-1.876570	4.432220	2.682060	0.000000e+00	0.000000e+00	0.000000e+00	0.000000e+00	0.000000e+00	0.000000e+00