LAMMPS (2 Aug 2023 - Update 1)

units           metal                   # eV, Ang, ps
variable        kcal_mol equal 43.36e-3 # eV
atom_style      full
boundary        p p p
processors      * * 1

bond_style      harmonic
angle_style     harmonic

read_data       water_molecule_on_gold.data
Reading data file ...
  orthogonal box = (0 0 0) to (34.9641 31.7217 30)
  3 by 2 by 1 MPI processor grid
  reading atoms ...
  157 atoms
  scanning bonds ...
  2 = max bonds/atom
  scanning angles ...
  1 = max angles/atom
  reading bonds ...
  2 bonds
  reading angles ...
  1 angles
Finding 1-2 1-3 1-4 neighbors ...
  special bond factors lj:    0        0        0       
  special bond factors coul:  0        0        0       
     2 = max # of 1-2 neighbors
     1 = max # of 1-3 neighbors
     1 = max # of 1-4 neighbors
     2 = max # of special neighbors
  special bonds CPU = 0.000 seconds
  read_data CPU = 0.005 seconds

timestep        1e-3
neighbor        2.0 bin
neigh_modify    every 1 delay 0 check yes exclude molecule/intra all

group           water type 1 2
3 atoms in group water

######### PAIR STYLE AND COEFFS #####################################################
pair_style      lj/smooth/linear 10.0

# water-water and NT-water LJ interaction
pair_coeff      *   *      0.00                0.00
pair_coeff      1   3      0.02                2.00


bond_coeff      1 1.0 0.9572
angle_coeff     1 1.0 104.52
set             type 1 charge -1.1128
Setting atom values ...
  1 settings made for charge
set             type 2 charge  0.5564
Setting atom values ...
  2 settings made for charge

######### FIXES #####################################################
fix             1 water langevin 300.0 300.0 1.0 4567
fix             2 water nve
compute         Twater water temp/com
compute         COM water com
fix             3 water print 1000 "$(time) $(c_COM[1]) $(c_COM[2])" file xy_300.dat screen no

######### OUTPUT ####################################################
thermo_style    custom time step temp c_Twater pe ke etotal ndanger c_COM[1] c_COM[2] c_COM[3]
thermo          1000

dump            mydump  all custom 1000 traj_diffusion.dump type x y z
dump_modify     mydump  first yes flush yes

run 10000000
Generated 0 of 3 mixed pair_coeff terms from geometric mixing rule
Neighbor list info ...
  update: every = 1 steps, delay = 0 steps, check = yes
  max neighbors/atom: 2000, page size: 100000
  master list distance cutoff = 12
  ghost atom cutoff = 12
  binsize = 6, bins = 6 6 5
  1 neighbor lists, perpetual/occasional/extra = 1 0 0
  (1) pair lj/smooth/linear, perpetual
      attributes: half, newton on
      pair build: half/bin/newton
      stencil: half/bin/3d
      bin: standard
WARNING: Dump mydump includes no atom IDs and is not sorted by ID. This may complicate post-processing tasks or visualization (../dump.cpp:221)
Per MPI rank memory allocation (min/avg/max) = 6.595 | 6.641 | 6.866 Mbytes
     Time         Step          Temp         c_Twater        PotEng         KinEng         TotEng       Ndanger      c_COM[1]       c_COM[2]       c_COM[3]   
 0                      0   0              0              0.0083566823   0              0.0083566823           0   12.112393      18.156426      14.274913    
 1                   1000   1.9646108      130.07903      0.023376283    0.039615557    0.06299184             0   13.162244      15.186202      15.945149    
 2                   2000   6.8159261      293.25271      0.0051031122   0.13744031     0.14254342             0   12.529927      10.179844      18.549807    
 3                   3000   3.8012791      204.33903      0.032960058    0.076651206    0.10961126             0   12.460357      8.1376847      20.95926     
 4                   4000   3.4863114      231.06275      0.016557502    0.070300014    0.086857517            0   14.107085      3.5542448      26.603237    
 5                   5000   3.1577762      179.70685      0.0024189927   0.063675238    0.066094231            0   16.770058      2.7648489      25.991412    
 6                   6000   1.9368152      116.72176      0.011249017    0.039055069    0.050304087            0   18.885869      1.4986043      23.972771    
 7                   7000   8.0104724      417.57785      0.0041329477   0.16152783     0.16566078             0   22.957887     -0.66168994     20.758672    
 8                   8000   3.8288018      273.92872      0.043720472    0.077206189    0.12092666             0   22.633748     -0.28921453     21.296972    
 9                   9000   8.3157002      218.6341       0.014957733    0.16768262     0.18264036             0   18.145801     -1.1778479      22.796565    
 10                 10000   10.861851      583.85672      0.054024708    0.21902469     0.2730494              0   13.908373     -0.53865762     30.192365    
 11                 11000   2.3882973      98.753274      0.09953759     0.048159019    0.14769661             0   16.0384       -0.042641985    34.646556    
 12                 12000   6.4393579      491.38007      0.081865669    0.12984696     0.21171263             0   17.480282     -1.7295635      34.904211    
 13                 13000   3.8081429      230.56101      0.01970096     0.076789612    0.096490572            0   16.761016     -2.0241467      33.403227    
 14                 14000   7.5472078      89.492325      0.075572362    0.1521863      0.22775866             0   20.747641     -3.0807179      25.178476    
 15                 15000   11.713126      375.74313      0.023105321    0.23619029     0.25929561             0   23.086446     -0.72115061     16.378889    
 16                 16000   3.2816917      226.57643      0.043495826    0.066173944    0.10966977             0   23.471056     -1.2492695      12.580895    
 17                 17000   4.505783       317.89701     -0.031821943    0.090857234    0.059035291            0   21.332415     -3.6644225      11.943532    
 18                 18000   4.6002213      264.45512      0.01981006     0.092761542    0.1125716              0   19.81666      -5.5811439      12.669757    
 19                 19000   8.1809388      544.20712     -0.00021744385  0.16496522     0.16474777             0   20.68345      -6.9317532      12.515751    
 20                 20000   6.5675707      185.45686      0.03643045     0.13243232     0.16886277             0   26.566056     -8.3866518      12.788308    
 21                 21000   8.3738019      135.64557     -0.030866099    0.16885422     0.13798812             0   33.556266     -8.541359       11.46689     
 22                 22000   4.9339705      319.41006     -0.013041392    0.099491457    0.086450065            0   31.27045      -10.001339      12.442851    
 23                 23000   1.982389       96.577963     -0.00054573876  0.039974046    0.039428308            0   30.117294     -7.3535764      13.066002    
 24                 24000   7.6750613      434.0985      -0.030194868    0.15476441     0.12456954             0   28.125037     -4.3011365      12.037028    
 25                 25000   8.298313       435.19618      0.051057073    0.16733202     0.21838909             0   29.779648     -1.0069869      11.890642    
 26                 26000   5.0652475      295.30934     -0.011595731    0.1021386      0.09054287             0   28.207889      0.79438463     11.769853    
 27                 27000   5.4653332      252.54257     -0.026326493    0.11020616     0.083879671            0   27.711183      0.64884308     12.123955    
 28                 28000   4.0373198      255.19097      0.011969013    0.081410868    0.09337988             0   23.016085      1.9864018      14.703273    
 29                 29000   8.9375982      605.09663      0.017203306    0.18022294     0.19742624             0   20.304082      2.5239767      14.999311    
 30                 30000   3.2757325      232.47485      0.076858745    0.066053778    0.14291252             0   16.886577      2.959469       15.626388    
 31                 31000   7.5238463      463.42677      0.068090647    0.15171522     0.21980587             0   16.866343     -0.46489605     17.024422    
 32                 32000   12.751631      911.54399      0.033370278    0.25713132     0.29050159             0   17.585383     -4.4323803      19.143824    
 33                 33000   7.3858266      509.10703      0.055637089    0.14893211     0.2045692              0   15.804642     -8.3534379      20.974166    
 34                 34000   4.5518704      186.04019      0.1185934      0.091786566    0.21037996             0   12.417083     -10.256158      23.200697    
 35                 35000   13.167906      890.20056      0.068435848    0.26552533     0.33396117             0   11.764413     -8.8239791      24.750977    
 36                 36000   5.6939003      412.91998      0.06220751     0.11481512     0.17702263             0   9.732714      -5.0975921      24.709796    
 37                 37000   10.37885       637.47139      0.028732127    0.20928517     0.2380173              0   13.363095     -4.8395617      26.42959     
 38                 38000   8.7591595      581.88456      0.087611455    0.1766248      0.26423625             0   19.18945      -8.8853095      24.552143    
 39                 39000   6.9151207      494.24124      0.050051482    0.13944052     0.189492               0   20.383991     -10.687233      22.878819    
 40                 40000   3.1830134      226.70664      0.013690819    0.064184137    0.077874957            0   20.198261     -9.6065446      22.925365    
 41                 41000   1.3998612      95.176419      0.024650282    0.028227617    0.052877899            0   19.002394     -10.39554       19.442478    
 42                 42000   8.5045258      592.72765      0.034463911    0.17149021     0.20595413             0   18.179016     -12.274415      16.330189    
 43                 43000   9.0335043      310.56657      0.09497852     0.18215684     0.27713536             0   12.070321     -15.986764      12.551313    
 44                 44000   5.833492       337.09686      0.011477852    0.11762993     0.12910778             0   10.111902     -14.109968      14.512354    
 45                 45000   3.4257486      177.88997      0.024254945    0.069078792    0.093333736            0   10.967568     -9.483683       18.191147    
 46                 46000   7.1144771      331.1342       0.080305504    0.14346046     0.22376597             0   6.7777412     -9.5074326      19.810082    
 47                 47000   10.261571      734.78579      0.031268607    0.20692029     0.2381889              0   5.565215      -17.151644      19.257614    
 48                 48000   4.2264917      71.669066      0.016899518    0.085225442    0.10212496             0   8.0079497     -17.482346      13.06613     
 49                 49000   5.7017111      81.947668     -0.0013563652   0.11497262     0.11361626             0   4.8926338     -10.968513      12.863224    
 50                 50000   2.9560706      221.70072     -0.014589984    0.05960793     0.045017946            0   2.2754292     -7.8795576      11.83718     
 51                 51000   0.80784415     43.622831     -0.0017499891   0.01628984     0.014539851            0   0.75800361    -10.174366      12.392743    
 52                 52000   3.1007867      209.44492     -0.010260642    0.062526069    0.052265427            0  -1.7931875     -9.0482365      11.876373    
 53                 53000   2.7367056      123.64631     -0.01258198     0.055184526    0.042602546            0  -2.77959       -7.8642735      11.997074    
 54                 54000   4.9024691      191.07829     -0.035084953    0.098856243    0.063771289            0  -4.1421779     -12.555768      11.732704    
 55                 55000   2.5481433      149.0223      -0.012435613    0.051382246    0.038946633            0  -1.0830817     -12.078508      11.710153    
 56                 56000   1.9104287      64.898129      0.017684715    0.038522998    0.056207714            0   0.66158346    -12.116555      14.049416    
 57                 57000   2.237752       118.55649      0.024312289    0.045123334    0.069435623            0   2.9245122     -11.986629      14.536959    
 58                 58000   4.5434077      94.16258       0.092799319    0.091615921    0.18441524             0   0.31029534    -8.474091       12.398394    
 59                 59000   2.4326442      175.21409     -0.0069793287   0.049053254    0.042073925            0  -1.7528815     -6.0816523      12.53375     
 60                 60000   3.6410954      163.3098       0.016211863    0.073421169    0.089633032            0   0.41288873    -7.8075002      15.404166    
 61                 61000   1.4237493      23.832303      0.019753116    0.02870931     0.048462426            0  -1.4645402     -5.4201616      15.402336    
 62                 62000   5.195282       243.50026      0.028120067    0.10476069     0.13288076             0   0.29757412    -2.6240982      13.113469    
 63                 63000   8.4082087      355.08122     -0.041179784    0.16954802     0.12836823             0   3.6136178     -2.8061863      11.687511    
 64                 64000   0.75647614     50.032218      0.0074406381   0.015254026    0.022694664            0   3.9241168      0.21861533     11.92597     
 65                 65000   2.8530788      49.185597     -0.034111523    0.057531144    0.023419621            0   3.6023061      1.984746       12.140866    
 66                 66000   4.5322677      322.53689      0.038375837    0.091391286    0.12976712             0   1.9543531      1.38317        14.274861    
 67                 67000   7.2362371      157.36468     -0.0065985026   0.1459157      0.1393172              0  -1.6160048      3.3797996      13.01672     
 68                 68000   6.602374       182.67701     -0.00056535738  0.13313412     0.13256876             0  -7.9100392      9.9904846      14.503207    
 69                 69000   4.0113839      152.0653       0.10412232     0.080887882    0.1850102              0  -11.901252      13.60848       20.02538     
 70                 70000   3.0008774      214.08435      0.063723443    0.06051144     0.12423488             0  -14.82051       15.536514      24.258845    
 71                 71000   4.740545       143.6872       0.053418882    0.095591111    0.14900999             0  -18.824792      15.404103      27.480305    
 72                 72000   2.8054597      72.645892      0.024922181    0.056570923    0.081493104            0  -23.106373      16.601929      35.145075    
 73                 73000   2.7640001      129.88769     -0.018747653    0.055734909    0.036987257            0  -25.024628      15.445775      37.636225    
 74                 74000   4.2340559      226.82421     -0.02253295     0.085377971    0.062845021            0  -22.695553      11.346415      38.197706    
 75                 75000   4.2890499      328.89168     -0.020409322    0.086486901    0.066077579            0  -21.681968      11.529203      38.364717    
 76                 76000   4.0010711      200.35915      0.04855207     0.080679928    0.129232               0  -21.428612      12.49817       37.125517    
 77                 77000   4.3819781      148.56797      0.0011353527   0.088360759    0.089496112            0  -17.821397      14.836192      32.473953    
 78                 78000   3.7207472      157.99176      0.062294059    0.075027313    0.13732137             0  -17.041698      17.804889      27.26764     
 79                 79000   6.1327911      251.21223      0.020476077    0.12366517     0.14414125             0  -11.868251      18.077733      24.568311    
 80                 80000   2.640337       132.41121      0.0071297124   0.053241294    0.060371006            0  -8.3016495      13.94783       24.694763    
 81                 81000   3.0372324      184.93525      0.10809758     0.061244524    0.1693421              0  -12.420402      10.410568      25.073827    
 82                 82000   2.3144251      167.80721      0.051561844    0.046669416    0.09823126             0  -15.733792      7.1606979      25.127107    
 83                 83000   7.0152274      178.82081      0.022924834    0.14145913     0.16438397             0  -16.285155      11.329753      24.226354    
 84                 84000   2.0809318      145.16391      0.016328688    0.041961121    0.058289809            0  -18.072856      16.054595      21.262384    
 85                 85000   10.544374      678.26334      0.033404842    0.2126229      0.24602775             0  -19.980572      14.853339      18.898001    
 86                 86000   6.7695995      281.93013      0.012988472    0.13650615     0.14949462             0  -22.597228      14.535978      14.429919    
 87                 87000   4.1515571      126.35609      0.041182719    0.083714416    0.12489713             0  -19.837849      18.536379      13.721767    
 88                 88000   3.424445       151.20112      0.00059766558  0.069052505    0.069650171            0  -18.511228      21.514088      12.654632    
 89                 89000   6.2995991      369.89385     -0.010945533    0.12702879     0.11608325             0  -21.148734      20.532894      12.274061    
 90                 90000   5.4693212      410.96701     -0.012671417    0.11028658     0.097615162            0  -21.947293      18.733641      12.317098    
 91                 91000   3.5135636      116.37834      0.010381151    0.070849544    0.081230695            0  -21.920203      21.510181      12.130626    
 92                 92000   3.2875021      250.79415     -0.0066022001   0.066291107    0.059688907            0  -23.989879      22.169096      12.083844    
 93                 93000   4.2974077      239.67089     -0.023326903    0.086655432    0.06332853             0  -23.662566      20.687846      11.644595    
 94                 94000   7.3455084      173.63947     -0.008520303    0.14811911     0.13959881             0  -19.322679      19.351911      11.903485    
 95                 95000   4.0545676      172.85885     -0.028681107    0.081758664    0.053077557            0  -12.483866      14.650161      12.313278    
 96                 96000   7.6241838      172.97582     -0.017367353    0.15373848     0.13637113             0  -8.5543542      15.497985      11.854337    
 97                 97000   8.2698333      76.755115      0.017822631    0.16675774     0.18458037             0  -4.3055961      16.89795       21.530463    
 98                 98000   5.6408297      344.37304      0.030627921    0.11374498     0.1443729              0   4.3522263      14.246236      22.340422    
 99                 99000   9.7505788      300.35001      0.052147544    0.19661635     0.2487639              0   8.0525709      11.922739      15.417649    
 100               100000   4.8833917      261.10307      0.0066054252   0.098471555    0.10507698             0   7.1675335      7.3221411      12.998285    
 101               101000   2.1276785      152.27952      0.054530728    0.042903749    0.097434478            0   4.9893275      5.9006434      13.612336    
 102               102000   8.2693203      328.90192      0.0052879412   0.16674739     0.17203533             0   7.9434977      6.3511748      12.506051    
 103               103000   5.2866601      298.60518      0.012933656    0.10660329     0.11953695             0   11.074738      1.9599147      15.698084    
 104               104000   6.9884943      364.6445       0.014061711    0.14092007     0.15498178             0   13.894753      2.4860516      15.146595    
 105               105000   5.5477214      222.80811      0.041007488    0.11186749     0.15287497             0   11.855941      8.2203016      18.839917    
 106               106000   7.2552768      532.54202      0.054757476    0.14629963     0.2010571              0   9.7703605      9.269945       19.844013    
 107               107000   4.0677163      290.29193      0.074345704    0.082023801    0.1563695              0   8.3118945      9.73239        19.824379    
 108               108000   11.819564      782.40962      0.017961367    0.23833658     0.25629794             0   8.5513613      7.5369888      17.875129    
 109               109000   10.766871      707.24714      0.0157709      0.21710945     0.23288035             0   13.450761      3.3233651      16.535103    
 110               110000   4.4528784      285.26885      0.01162304     0.089790434    0.10141347             0   14.060501     -1.0173104      15.620018    
 111               111000   8.8798064      533.17158      0.007322268    0.17905759     0.18637986             0   10.128157     -5.0696617      16.835096    
 112               112000   4.654237       282.40213      0.02222208     0.093850746    0.11607283             0   11.430258     -7.6836145      16.382334    
 113               113000   4.4543124      227.25532      0.024917551    0.08981935     0.1147369              0   15.698118     -7.8015106      16.791647    
 114               114000   6.4913407      246.73724      0.02134279     0.13089518     0.15223797             0   18.700316     -11.58373       18.05463     
 115               115000   5.7080807      152.07796      0.0625938      0.11510106     0.17769486             0   25.924412     -9.8596023      19.119932    
 116               116000   6.8854592      362.27835      0.02781583     0.13884241     0.16665824             0   30.10271      -10.126186      22.058309    
 117               117000   5.9955916      317.34437      0.11222644     0.1208986      0.23312504             0   32.218316     -13.349121      21.821485    
 118               118000   8.7280757      278.61407      0.045842104    0.175998       0.22184011             0   31.869108     -10.513475      17.119842    
 119               119000   8.1635449      352.73809      0.025578288    0.16461448     0.19019276             0   31.224451     -4.1177695      13.21205     
 120               120000   9.612369       582.03538     -0.00058696388  0.19382941     0.19324244             0   34.186149     -4.9734322      12.856883    
 121               121000   6.7564141      368.87268      0.028426583    0.13624027     0.16466685             0   35.440076     -7.1058916      18.314712    
 122               122000   2.2668933      82.63416       0.07060218     0.045710956    0.11631314             0   37.753296     -9.6535137      20.131069    
 123               123000   5.9029928      377.03773      0.053041151    0.11903139     0.17207254             0   41.80049      -8.5858695      20.373249    
 124               124000   6.4860149      450.6112       0.011122366    0.13078778     0.14191015             0   42.246052     -5.9770754      18.761427    
 125               125000   1.7445772      113.36672      0.059519742    0.035178671    0.094698413            0   43.580274     -8.9906826      16.586737    
 126               126000   4.1112884      181.69258      0.045190477    0.082902415    0.12809289             0   43.736267     -10.239663      20.604337    
 127               127000   6.6892882      407.73508      0.01142599     0.13488671     0.1463127              0   44.523344     -12.90634       24.772376    
 128               128000   3.08118        211.34965      0.04632475     0.062130709    0.10845546             0   44.58079      -14.585743      28.403488    
 129               129000   4.5252618      309.81049      0.024471324    0.091250016    0.11572134             0   44.64631      -19.297957      28.266576    
 130               130000   6.5857561      478.47979      0.031785827    0.13279902     0.16458485             0   45.543334     -19.77435       30.009409    
 131               131000   4.8014417      322.44828      0.019055301    0.096819068    0.11587437             0   45.648146     -20.220663      32.392748    
 132               132000   11.304516      832.78627      0.007927866    0.22795084     0.23587871             0   46.58422      -22.28051       32.355706    
 133               133000   4.6929172      324.03187      0.046760746    0.094630716    0.14139146             0   48.259215     -23.853777      32.869295    
 134               134000   6.9861783      361.19699      0.057171322    0.14087337     0.19804469             0   47.767437     -23.68645       31.999728    
 135               135000   4.5405047      230.11808      0.046690557    0.091557381    0.13824794             0   47.161115     -28.57622       27.491958    
 136               136000   3.716462       186.54058      0.040039084    0.074940904    0.11497999             0   44.946772     -32.410456      29.314853    
 137               137000   4.2942465      169.12976      0.0078331868   0.086591688    0.094424874            0   41.434883     -28.962998      29.654922    
 138               138000   4.7625063      311.54046      0.015014542    0.096033952    0.11104849             0   44.132434     -28.522084      28.043947    
 139               139000   3.9648683      146.02196      0.02928612     0.079949914    0.10923603             0   43.808961     -31.43168       27.163804    
 140               140000   1.2467906      76.671171      0.026267874    0.025141013    0.051408887            0   39.458636     -32.95388       25.167716    
 141               141000   2.5306658      120.30177      0.0083428962   0.05102982     0.059372716            0   39.029503     -34.247541      22.989988    
 142               142000   4.4552929      277.09576      0.055449856    0.089839122    0.14528898             0   40.605283     -33.866747      19.343189    
 143               143000   7.1471392      239.6255       0.073480473    0.14411908     0.21759955             0   39.823283     -31.844545      17.778187    
 144               144000   9.666473       499.43757      0.049586916    0.19492039     0.24450731             0   43.063291     -25.984529      14.86219     
 145               145000   7.8415455      346.45817      0.035064285    0.15812149     0.19318578             0   48.059118     -22.564359      15.004961    
 146               146000   5.3392928      346.13104      0.11120973     0.10766461     0.21887434             0   49.977138     -22.01499       18.074294    
 147               147000   4.0594037      234.05614      0.12262336     0.081856181    0.20447954             0   45.604497     -22.206873      20.905293    
 148               148000   15.767378      1140.9063      0.051550161    0.31794259     0.36949275             0   46.182639     -23.443349      26.388828    
 149               149000   6.0881055      298.5458       0.02781971     0.12276411     0.15058382             0   44.615323     -22.02417       26.547799    
 150               150000   3.0425634      114.54334      0.0048295975   0.061352021    0.066181618            0   41.559957     -18.18764       22.97982     
 151               151000   5.4996753      214.37021      0.031883319    0.11089866     0.14278198             0   38.945723     -10.660037      20.711745    
 152               152000   5.0846528      348.69028      0.02436104     0.1025299      0.12689094             0   37.612431     -5.7475739      20.580823    
 153               153000   6.6400601      254.14384      0.029086248    0.13389404     0.16298029             0   41.117627     -7.1944681      19.301307    
 154               154000   5.937016       404.30767      0.019638187    0.11971745     0.13935564             0   43.210354     -6.9169481      20.808003    
 155               155000   1.8212155      93.508722      0.021581257    0.03672405     0.058305307            0   42.35705      -5.5211783      23.402803    
 156               156000   5.9548486      114.21986      0.045252167    0.12007704     0.1653292              0   39.189632     -7.8063215      24.880489    
 157               157000   5.883419       374.88143      0.0011720652   0.11863669     0.11980875             0   37.201732     -11.657049      29.197386    
 158               158000   11.935496      412.79101     -0.017131398    0.24067429     0.22354289             0   38.138145     -10.741867      37.415677    
 159               159000   2.4222017      134.6208       0.065692812    0.048842685    0.1145355              0   33.865798     -15.359806      35.056991    
 160               160000   6.9752414      499.99483      0.014860795    0.14065283     0.15551363             0   32.973716     -16.23497       34.684049    
 161               161000   6.6090185      218.70295     -0.035036828    0.1332681      0.098231271            0   34.391625     -20.872791      38.185814    
 162               162000   3.2917024      185.34794     -0.0036687929   0.066375805    0.062707012            0   34.277836     -26.723139      36.729999    
 163               163000   2.3610491      138.83235     -0.028217781    0.047609569    0.019391789            0   31.653391     -28.714367      37.892944    
 164               164000   3.3178326      156.25466     -0.0053270631   0.066902709    0.061575646            0   30.337852     -30.387059      38.039659    
 165               165000   10.443834      405.21365     -0.027485318    0.21059556     0.18311025             0   27.928316     -31.792939      38.280693    
 166               166000   6.0462454      205.47955      0.0016647233   0.12192002     0.12358474             0   35.933158     -27.515054      38.190991    
 167               167000   6.2219329      300.94025      0.01082589     0.12546268     0.13628857             0   36.145937     -25.423996      37.527599    
 168               168000   7.8446795      502.74369      0.012439598    0.15818469     0.17062429             0   34.230226     -25.837001      37.128067    
 169               169000   6.0255874      277.8271       0.0029069021   0.12150345     0.12441036             0   32.777273     -21.449827      33.702731    
 170               170000   4.2929654      273.65453      0.066836562    0.086565854    0.15340242             0   32.562027     -18.086457      30.104976    
 171               171000   4.5281796      324.22074      0.046955873    0.091308852    0.13826473             0   32.315135     -12.769004      27.266951    
 172               172000   7.887162       140.63132      0.12490548     0.15904133     0.28394681             0   33.19293      -8.1983099      28.364594    
 173               173000   3.6927321      209.28486      0.045781105    0.074462402    0.12024351             0   39.394515     -3.6005093      26.605543    
 174               174000   3.7033136      233.14333      0.009931131    0.074675774    0.084606905            0   40.239818     -5.1396846      27.894066    
 175               175000   3.1365306      200.7032       0.014942493    0.06324683     0.078189324            0   39.473194     -7.6850603      26.665713    
 176               176000   4.6358894      201.13778      0.018795628    0.093480776    0.1122764              0   34.774765     -14.797191      27.232567    
 177               177000   5.7433713      266.455        0.010264237    0.11581268     0.12607692             0   34.321026     -13.706582      27.624742    
 178               178000   7.5088619      454.50679      0.060627988    0.15141307     0.21204105             0   40.121949     -13.229049      21.714914    
 179               179000   8.4288715      493.3217       0.033070857    0.16996467     0.20303553             0   46.291842     -15.855154      22.189238    
 180               180000   8.1218704      307.49278      0.048914485    0.16377413     0.21268861             0   54.164143     -20.556233      16.704993    
 181               181000   7.8750053      360.15461     -0.050776617    0.15879619     0.10801958             0   58.343196     -22.908943      11.575135    
 182               182000   4.0523204      241.19124      0.0086063414   0.08171335     0.090319692            0   53.391886     -18.960514      12.855817    
 183               183000   7.3319312      421.1866      -0.01422051     0.14784533     0.13362482             0   46.635408     -21.158828      12.299605    
 184               184000   12.095058      847.9203      -0.028745863    0.2438918      0.21514593             0   48.809107     -23.091568      12.168632    
 185               185000   6.6806465      451.01268     -0.029264804    0.13471245     0.10544764             0   50.734008     -23.645291      12.090643    
 186               186000   6.4185302      132.84983      0.047334445    0.12942698     0.17676143             0   55.265562     -24.242916      11.991895    
 187               187000   8.3847098      246.20392     -0.0077018645   0.16907417     0.16137231             0   51.810573     -25.753912      11.778001    
 188               188000   3.7442426      290.97492      0.031229602    0.07550109     0.10673069             0   47.019429     -24.945609      13.068641    
 189               189000   3.8315483      124.96284      0.13143407     0.077261573    0.20869564             0   47.515221     -18.419573      14.400159    
 190               190000   4.9054467      196.45673      0.054363327    0.098916285    0.15327961             0   46.816371     -15.31356       11.881264    
 191               191000   2.5296559      61.779929     -0.02724639     0.051009455    0.023763064            0   46.640458     -14.909168      11.598495    
 192               192000   5.3945972      258.77338     -0.045855306    0.1087798      0.062924495            0   46.282484     -15.076757      11.677697    
 193               193000   5.3117799      390.49208      0.018970757    0.10710982     0.12608058             0   49.090207     -12.44842       11.312894    
 194               194000   6.8126509      69.414155     -0.040959542    0.13737426     0.096414721            0   51.834281     -20.405339      11.690692    
 195               195000   5.6255383      256.58091     -0.024733387    0.11343663     0.088703245            0   48.241617     -26.667529      12.132935    
 196               196000   8.6674453      460.71033      0.050069372    0.17477542     0.22484479             0   45.874477     -26.341291      11.548574    
 197               197000   7.4855562      501.23258      0.014163862    0.15094312     0.16510698             0   43.613595     -23.268091      16.01727     
 198               198000   5.8081904      445.87751      0.0056771706   0.11711973     0.12279691             0   40.125827     -23.05035       14.890367    
 199               199000   6.4160416      120.42374     -0.025198414    0.1293768      0.10417839             0   36.013812     -24.838662      12.343274    
 200               200000   3.1666586      141.32251      0.041060573    0.06385435     0.10491492             0   37.399553     -31.98299       14.489773    
 201               201000   7.9452834      389.41287      0.024235097    0.16021332     0.18444842             0   37.462121     -31.551577      11.939549    
 202               202000   9.0461537      637.49434      0.033746025    0.18241191     0.21615794             0   38.620462     -35.540234      11.567971    
 203               203000   7.2971312      371.4949       0.021266974    0.14714361     0.16841058             0   40.268243     -32.128298      12.029476    
 204               204000   10.082228      731.54777      0.018001046    0.20330392     0.22130497             0   39.911998     -30.709331      12.913611    
 205               205000   10.608639      539.54852     -0.0069003977   0.21391879     0.20701839             0   36.679465     -27.88787       11.866429    
 206               206000   9.0563265      591.0637       0.0044883364   0.18261704     0.18710538             0   40.638296     -29.772791      12.857133    
 207               207000   7.3156547      474.96968      0.033689815    0.14751712     0.18120694             0   45.539515     -32.899458      12.019633    
 208               208000   6.975781       527.40932      0.09973355     0.14066371     0.24039726             0   45.578202     -33.180765      11.384593    
 209               209000   5.0152437      358.77484      0.032257067    0.1011303      0.13338736             0   46.945931     -33.300256      13.83024     
 210               210000   11.46794       662.39076      0.0031011452   0.23124623     0.23434737             0   48.131157     -31.238139      12.126733    
 211               211000   7.8815833      380.71515      0.053337188    0.15892884     0.21226603             0   46.947838     -30.772076      13.64394     
 212               212000   4.8450855      205.49168      0.00049599807  0.097699128    0.098195126            0   44.243437     -34.195465      14.426552    
 213               213000   2.7931909      161.91206      0.016512097    0.056323529    0.072835626            0   43.480843     -38.257161      11.608104    
 214               214000   2.9448829      153.19294      0.023491156    0.059382334    0.08287349             0   43.971922     -37.155255      13.061936    
 215               215000   8.2823021      545.00345      0.053890785    0.16700916     0.22089995             0   45.917654     -36.954798      13.660931    
 216               216000   5.550373       210.73788      0.0044791272   0.11192095     0.11640008             0   43.598917     -38.511937      17.548181    
 217               217000   2.1655105      90.667424      0.00045662127  0.043666616    0.044123237            0   46.512771     -39.823083      20.526308    
 218               218000   3.2625488      221.63952      0.0025280932   0.065787936    0.068316029            0   48.717818     -38.533416      22.472561    
 219               219000   6.6062957      185.61366      0.015157241    0.13321319     0.14837044             0   49.913662     -37.46171       16.024119    
 220               220000   5.8502337      142.76773      0.0062110436   0.11796752     0.12417856             0   54.435615     -37.17232       13.422319    
 221               221000   4.907407       225.591       -0.0011455147   0.098955813    0.097810299            0   56.984783     -36.787983      12.760588    
 222               222000   4.041887       201.10357      0.03413379     0.081502965    0.11563675             0   59.884457     -33.221499      18.327875    
 223               223000   4.9155031      311.14788      0.10569294     0.099119069    0.20481201             0   60.137672     -28.430794      18.5601      
 224               224000   5.6340113      313.45062      0.060524304    0.11360749     0.17413179             0   62.680045     -26.523381      18.470424    
 225               225000   3.6170927      132.57477      0.047935619    0.072937165    0.12087278             0   60.375508     -23.093429      24.431913    
 226               226000   4.2186408      178.70606      0.018491238    0.085067131    0.10355837             0   60.412796     -21.335938      28.577546    
 227               227000   4.0974655      289.80711      0.021549626    0.082623681    0.10417331             0   61.574815     -24.067213      29.338996    
 228               228000   3.7780649      95.28549       0.013177036    0.076183102    0.089360138            0   60.377597     -23.912314      27.818443    
 229               229000   6.2515645      253.20427      0.0053215836   0.12606019     0.13138177             0   61.020134     -31.761526      31.493073    
 230               230000   6.5655031      196.4108       0.072902588    0.13239063     0.20529322             0   64.337635     -37.51696       35.759426    
 231               231000   3.8304713      258.54824      0.032483606    0.077239855    0.10972346             0   66.431544     -40.864109      34.215038    
 232               232000   4.7637952      220.14211      0.053411235    0.096059942    0.14947118             0   68.172213     -45.042465      35.771696    
 233               233000   2.626652       152.19498      0.021266331    0.052965341    0.074231672            0   67.764602     -48.115561      37.673977    
 234               234000   6.677101       316.47966     -0.053087031    0.13464095     0.081553923            0   68.524932     -51.291001      38.446555    
 235               235000   5.3862625      94.697211      0.0097388934   0.10861174     0.11835063             0   71.247137     -52.127626      37.428455    
 236               236000   3.0121755      175.20013     -0.037001579    0.060739263    0.023737683            0   76.329454     -54.834557      38.193188    
 237               237000   2.7889266      99.930012      0.0016359396   0.056237541    0.05787348             0   75.207701     -52.416983      37.568306    
 238               238000   2.0380699      145.43786     -0.027405594    0.041096829    0.013691235            0   71.476337     -52.453733      38.350323    
 239               239000   2.0282229      34.28676      -0.010083414    0.040898269    0.030814855            0   72.371643     -49.854953      37.867898    
 240               240000   9.4684081      298.98736     -0.0055505837   0.1909265      0.18537591             0   74.500968     -55.220512      37.095734    
 241               241000   5.3948951      389.21527      0.02503563     0.10878581     0.13382144             0   68.124659     -59.963822      34.159893    
 242               242000   8.3846466      642.17149      0.021472498    0.1690729      0.1905454              0   66.733526     -59.821009      35.121265    
 243               243000   5.9173005      225.03478      0.028671782    0.11931989     0.14799168             0   66.306984     -61.255178      34.439277    
 244               244000   9.5319715      592.68078      0.023416149    0.19220823     0.21562438             0   64.554844     -59.133444      30.580424    
 245               245000   6.9028176      426.83774      0.044832442    0.13919244     0.18402488             0   60.529186     -58.226033      28.71011     
 246               246000   5.6962744      345.62515      0.0092486507   0.114863       0.12411165             0   57.436469     -57.442293      32.103709    
 247               247000   3.6546001      220.38403      0.0072324273   0.073693486    0.080925913            0   57.678779     -58.304822      33.617158    
 248               248000   10.780225      543.76846      0.002200062    0.21737874     0.21957881             0   55.232751     -62.681773      36.799017    
 249               249000   3.223596       232.82907      0.026068865    0.065002469    0.091071334            0   50.947312     -64.884267      36.768556    
 250               250000   4.9631523      352.44347     -0.04425039     0.10007989     0.055829504            0   51.693661     -66.195401      38.232517    
 251               251000   4.0829889      258.43787      0.0031971121   0.082331766    0.085528879            0   50.41158      -61.536701      37.759256    
 252               252000   3.403195       166.85002     -0.014956456    0.068624006    0.053667551            0   50.011734     -60.958828      37.722674    
 253               253000   3.9100643      193.47909      0.015845561    0.078844815    0.094690376            0   48.158485     -59.468959      37.308454    
 254               254000   5.5291938      228.02764      0.011802329    0.11149388     0.12329621             0   50.318348     -58.543625      37.752737    
 255               255000   6.3349866      463.94312     -0.025263834    0.12774236     0.10247853             0   48.714727     -58.746119      37.852536    
 256               256000   2.8010221      165.62535     -0.025337809    0.056481441    0.031143632            0   47.964233     -60.212404      37.979203    
 257               257000   8.3596964      537.46642      0.039629493    0.16856979     0.20819928             0   48.656427     -62.150493      38.195285    
 258               258000   6.8726058      462.48414      0.11953016     0.13858323     0.25811339             0   48.356647     -60.738879      38.370322    
 259               259000   3.7817294      235.8154       0.10108735     0.076256994    0.17734435             0   49.950636     -59.235272      35.029066    
 260               260000   4.2842064      300.71448      0.089767516    0.086389233    0.17615675             0   50.725923     -59.732996      32.372124    
 261               261000   4.7398915      263.03568      0.06230674     0.095577934    0.15788467             0   53.838794     -64.067107      30.247074    
 262               262000   2.5349437      55.326301      0.003769739    0.051116082    0.054885821            0   53.223091     -66.297864      27.789245    
 263               263000   2.6353646      145.44174      0.0038562713   0.053141028    0.056997299            0   48.723105     -67.403851      30.084145    
 264               264000   3.4681695      240.88889      0.032530849    0.06993419     0.10246504             0   45.99524      -66.27041       30.461258    
 265               265000   5.7049276      106.90455      0.045552684    0.11503748     0.16059017             0   40.101156     -64.952851      33.487006    
 266               266000   2.9547707      92.791562     -0.036292911    0.059581719    0.023288807            0   36.731769     -66.351954      38.003399    
 267               267000   2.7038027      140.122       -0.029021806    0.054521052    0.025499247            0   37.191681     -66.639394      38.05576     
 268               268000   4.8271543      273.16218      0.0093987185   0.097337552    0.10673627             0   38.42494      -66.568243      37.353501    
 269               269000   7.9053529      316.29723     -0.047559911    0.15940814     0.11184823             0   43.6377       -69.651534      38.419894    
 270               270000   5.4724925      353.75605      0.029128161    0.11035053     0.13947869             0   45.174426     -68.498489      35.895758    
 271               271000   5.8239386      184.9075       0.0028587219   0.11743729     0.12029601             0   44.054843     -73.740264      31.457724    
 272               272000   8.9295792      410.73361      0.040562749    0.18006124     0.22062399             0   46.803147     -74.993841      25.577081    
 273               273000   5.4994102      127.77         0.027575617    0.11089331     0.13846893             0   47.122769     -81.433773      23.143944    
 274               274000   1.8642055      94.250952      0.031656744    0.037590926    0.06924767             0   44.600758     -85.193694      24.859335    
 275               275000   2.7012134      89.480668      0.017882885    0.05446884     0.072351724            0   44.207005     -86.121595      28.069904    
 276               276000   5.7327116      169.88048      0.010929898    0.11559774     0.12652763             0   39.806119     -88.235659      32.818804    
 277               277000   9.0367936      112.97828     -0.0063471134   0.18222317     0.17587606             0   39.300947     -95.609771      37.93954     
 278               278000   9.4837383      321.65281      0.0069607693   0.19123562     0.19819639             0   40.871744     -100.6936       34.51838     
 279               279000   7.4903535      408.6506       0.033770261    0.15103985     0.18481011             0   40.388853     -106.65725      29.636362    
 280               280000   5.6270409      341.14588      0.019032873    0.11346693     0.1324998              0   40.748948     -109.58664      25.244868    
 281               281000   3.1615004      194.36292      0.052893707    0.063750335    0.11664404             0   41.20944      -111.40533      22.358435    
 282               282000   5.874155       352.01631      0.025788378    0.11844988     0.14423826             0   41.542738     -117.28257      22.746606    
 283               283000   4.546198       313.38111      0.013280048    0.091672185    0.10495223             0   41.125092     -121.08535      24.218121    
 284               284000   15.6787        884.86216      0.0129725      0.31615445     0.32912695             0   37.425711     -119.11332      29.856052    
 285               285000   8.3795523      439.30247      0.013693737    0.16897017     0.18266391             0   32.749372     -114.24517      31.769964    
 286               286000   4.5976394      119.74352      0.026784883    0.09270948     0.11949436             0   26.011191     -112.98206      32.63046     
 287               287000   2.9118743      137.63755      0.035417686    0.058716731    0.094134416            0   21.758896     -112.16982      30.916174    
 288               288000   1.8947911      93.677741      0.076271936    0.038207671    0.11447961             0   17.157765     -110.1129       32.712674    
 289               289000   4.335804       142.24122      0.11255521     0.087429679    0.19998489             0   15.18894      -108.72521      29.039971    
 290               290000   6.1270277      338.77406      0.071282989    0.12354896     0.19483195             0   11.022402     -115.01854      28.173006    
 291               291000   7.0045166      184.25434      0.0161375      0.14124315     0.15738065             0   5.957347      -116.0207       30.297804    
 292               292000   6.8819546      198.91532      0.068547293    0.13877174     0.20731904             0  -1.9492194     -109.4399       28.895338    
 293               293000   5.9140184      186.35698      0.036610631    0.11925371     0.15586434             0   0.12243961    -103.29182      24.716451    
 294               294000   7.032586       433.68003      0.033775247    0.14180916     0.17558441             0   4.5385632     -102.73942      20.712205    
 295               295000   2.1409318      142.2605       0.057611849    0.043170997    0.10078285             0   7.2273388     -99.964246      19.135209    
 296               296000   7.4477938      376.78264      0.0091257784   0.15018165     0.15930743             0   7.0359853     -101.38462      19.437834    
 297               297000   6.9391251      441.63757      0.00089417822  0.13992456     0.14081874             0   8.7209169     -104.17409      17.345312    
 298               298000   5.3410613      353.70686      0.02729038     0.10770027     0.13499065             0   6.3250543     -103.4052       16.044301    
 299               299000   6.3183064      344.22301      0.017392789    0.12740601     0.1447988              0   2.2331312     -103.08247      16.506859    
 300               300000   3.6872806      153.77213      0.0014778891   0.074352474    0.075830364            0  -0.88245621    -102.60211      18.004532    
 301               301000   5.6461671      351.06281      0.04141114     0.1138526      0.15526374             0  -3.4879833     -105.62794      20.304342    
 302               302000   5.3584156      413.67586      0.063301108    0.10805021     0.17135132             0  -5.1264497     -104.81682      22.721956    
 303               303000   6.2566309      336.04181      0.028858773    0.12616235     0.15502112             0  -0.39457903    -103.82529      19.377418    
 304               304000   6.9045332      255.80257      0.048044841    0.13922703     0.18727187             0  -0.27496178    -100.66957      18.470842    
 305               305000   4.2319099      217.19191      0.052269075    0.085334696    0.13760377             0  -2.5491366     -94.892689      23.262072    
 306               306000   4.2516433      212.91375      0.020985834    0.085732612    0.10671845             0  -2.7216393     -94.059918      26.948559    
 307               307000   3.7583223      176.51234      0.0083115347   0.075785       0.084096535            0  -0.40026678    -95.772317      28.073193    
 308               308000   2.8838728      201.73837      0.074307307    0.058152091    0.1324594              0  -0.38577334    -99.532686      28.800609    
 309               309000   3.8178502      258.09864      0.088278407    0.076985356    0.16526376             0  -0.50498179    -102.44814      29.621996    
 310               310000   4.7890634      288.91041      0.01705454     0.096569465    0.113624               0   3.0156216     -102.60708      29.492518    
 311               311000   3.454221       211.21159      0.011130871    0.069652925    0.080783796            0   7.3187202     -103.48424      27.84085     
 312               312000   7.1631224      413.60038      0.025948467    0.14444137     0.17038984             0   2.4641797     -101.26769      27.259546    
 313               313000   15.857975      839.9761       0.010117321    0.31976945     0.32988677             0   3.019942      -108.41277      23.612304    
 314               314000   8.6135732      402.52716      0.30733994     0.17368911     0.48102905             0   8.7003294     -108.59196      25.50326     
 315               315000   3.9882316      230.87927      0.039075027    0.080421025    0.11949605             0   11.683847     -106.04653      28.936542    
 316               316000   7.1462795      374.17023      0.073692316    0.14410174     0.21779406             0   10.813307     -110.41348      34.14557     
 317               317000   7.2407569      204.99244      0.092811829    0.14600684     0.23881867             0   11.907941     -107.33322      33.14587     
 318               318000   12.153019      230.77146      0.057742076    0.24506055     0.30280262             0   20.961046     -106.63245      31.509938    
 319               319000   5.4622845      276.75185      0.06202069     0.11014469     0.17216538             0   29.077589     -110.50759      31.945283    
 320               320000   6.6503806      440.06395      0.02150516     0.13410215     0.15560731             0   30.383188     -113.83221      32.178193    
 321               321000   3.6042402      175.94061      0.058544153    0.072678       0.13122215             0   27.844694     -118.5529       30.886678    
 322               322000   6.9530824      517.769        0.043856713    0.140206       0.18406272             0   25.005604     -118.00633      30.349699    
 323               323000   4.1067831      162.03549      0.030953488    0.082811568    0.11376506             0   21.208132     -118.64647      30.285533    
 324               324000   7.5972375      281.64331      0.028116593    0.15319512     0.18131172             0   16.716869     -115.3744       30.107498    
 325               325000   1.4267391      110.69488      0.0070520425   0.028769598    0.03582164             0   13.305909     -113.24707      30.843363    
 326               326000   2.8572664      210.33496      0.055033988    0.057615584    0.11264957             0   14.111651     -111.32028      31.135817    
 327               327000   6.27822        290.18063      0.071225553    0.12659769     0.19782324             0   12.538064     -108.44168      33.779717    
 328               328000   3.0299747      220.26289      0.018552754    0.061098176    0.07965093             0   11.066149     -107.61858      35.549858    
 329               329000   4.9868565      239.10309      0.035454532    0.10055788     0.13601241             0   8.8025777     -106.0972       33.897046    
 330               330000   5.1647973      294.35883      0.051800991    0.10414598     0.15594697             0   4.9758043     -106.38896      28.37984     
 331               331000   2.7274026      116.79987      0.0041261266   0.054996935    0.059123062            0   4.3147889     -106.92858      24.994714    
 332               332000   3.3171667      120.71116      0.078070532    0.066889281    0.14495981             0   7.8886029     -108.36669      25.000299    
 333               333000   8.1198093      462.18164      0.048205483    0.16373257     0.21193805             0   10.392701     -110.68161      25.993307    
 334               334000   2.8895513      212.50866      0.060844205    0.058266597    0.1191108              0   15.341771     -114.64547      21.984012    
 335               335000   9.303519       640.48457      0.010762054    0.18760158     0.19836363             0   17.120428     -115.32103      19.740583    
 336               336000   3.9316877      235.23748      0.042139168    0.079280841    0.12142001             0   20.500131     -114.06155      19.537192    
 337               337000   4.6128014      85.982069      0.044715389    0.093015215    0.1377306              0   22.113499     -107.72116      18.985979    
 338               338000   0.86361659     60.690102      0.041469255    0.017414468    0.058883723            0   19.861924     -104.94033      18.151       
 339               339000   7.5948507      138.60713      0.019231999    0.15314699     0.17237899             0   17.641293     -107.70972      22.099715    
 340               340000   4.7089578      128.73055      0.011419504    0.094954169    0.10637367             0   9.6336626     -108.39719      25.861752    
 341               341000   5.3423698      276.23388      0.0065442164   0.10772666     0.11427087             0   2.838425      -107.78287      27.233783    
 342               342000   12.247132      620.12343      0.01587609     0.2469583      0.26283439             0   4.0936557     -110.04321      31.541108    
 343               343000   6.7243237      423.81479      0.048073105    0.13559318     0.18366629             0   10.652547     -112.01032      34.976133    
 344               344000   10.885841      588.8083      -0.047861393    0.21950844     0.17164705             0   14.494314     -111.0802       38.527969    
 345               345000   8.6677622      670.70106     -0.0049336439   0.17478181     0.16984816             0   12.026829     -112.27987      37.662048    
 346               346000   7.2389653      382.69664      0.076762064    0.14597071     0.22273278             0   12.241559     -111.54455      36.710277    
 347               347000   5.6922283      230.00965      0.025199144    0.11478141     0.13998055             0   11.219218     -102.57733      34.254162    
 348               348000   4.6829619      306.46157      0.026292376    0.094429972    0.12072235             0   11.357569     -99.175033      31.911053    
 349               349000   6.3318449      456.55594      0.010609928    0.12767901     0.13828894             0   12.878088     -102.35482      31.981883    
 350               350000   17.391058      776.15024     -0.0046655451   0.35068343     0.34601788             0   13.697952     -103.90713      38.607387    
 351               351000   9.4467376      444.85583      0.028420056    0.19048952     0.21890958             0   11.564886     -108.61761      31.783528    
 352               352000   8.6266437      200.58744      0.094968623    0.17395267     0.26892129             0   10.822235     -110.71864      24.652828    
 353               353000   6.2365189      424.10411      0.12395837     0.1257568      0.24971517             0   6.3658011     -114.5343       18.858029    
 354               354000   5.4770713      346.6785       0.063850395    0.11044286     0.17429325             0   5.9540696     -116.2664       19.04497     
 355               355000   4.0795264      304.87134      0.039352483    0.082261948    0.12161443             0   8.6407883     -116.23598      18.199441    
 356               356000   6.9767364      353.09232      0.13347691     0.14068298     0.27415989             0   10.850336     -114.89886      13.948609    
 357               357000   4.3126025      228.88893      0.083554736    0.086961829    0.17051657             0   13.36858      -114.21861      14.468553    
 358               358000   7.1198465      461.3279       0.019583069    0.14356873     0.1631518              0   12.286518     -115.47309      16.010645    
 359               359000   1.9007433      99.912005      0.07239193     0.038327695    0.11071963             0   11.016292     -116.0175       15.695159    
 360               360000   1.4174687      95.643447      0.058005372    0.028582666    0.086588038            0   8.5030441     -117.80595      15.991331    
 361               361000   6.3479475      410.21019     -0.0014297255   0.12800371     0.12657399             0   12.511214     -115.57367      13.747713    
 362               362000   4.3387435      179.25027      0.020480092    0.087488952    0.10796904             0   17.320448     -115.60694      12.686658    
 363               363000   5.1719162      312.46281     -0.017581167    0.10428953     0.086708365            0   17.838695     -113.23657      12.146321    
 364               364000   5.8700276      349.18944     -0.037379667    0.11836666     0.080986988            0   19.798811     -114.06279      11.710082    
 365               365000   6.6895733      433.48677     -0.0031512936   0.13489245     0.13174116             0   19.941432     -114.07797      12.432796    
 366               366000   8.3601         550.05024      0.077245384    0.16857793     0.24582331             0   22.480243     -113.47523      17.406944    
 367               367000   2.5437185      139.4706       0.043417818    0.051293022    0.09471084             0   25.004278     -112.92433      19.361498    
 368               368000   2.2637795      132.51768      0.015989209    0.045648168    0.061637377            0   25.123569     -110.93746      19.047558    
 369               369000   5.7125641      211.9962       0.043217602    0.11519147     0.15840907             0   24.871648     -107.10418      20.724616    
 370               370000   5.4359012      295.38949      0.024388754    0.10961268     0.13400143             0   24.700664     -101.44309      21.012685    
 371               371000   4.103076       136.52285      0.046581683    0.082736814    0.1293185              0   23.168487     -95.955682      21.881762    
 372               372000   3.3387912      166.48502      0.038920044    0.06732533     0.10624537             0   21.97094      -90.271639      23.90622     
 373               373000   2.4223841      77.345563      0.0071561276   0.048846364    0.056002491            0   21.318921     -92.143808      26.701416    
 374               374000   4.0498086      116.5028       0.0036586551   0.0816627      0.085321355            0   16.823614     -93.788098      25.048012    
 375               375000   7.4899726      555.85704      0.068835226    0.15103217     0.2198674              0   13.129839     -93.767847      25.730333    
 376               376000   9.5967603      737.78626      0.016507289    0.19351467     0.21002196             0   13.9983       -89.798157      24.591618    
 377               377000   4.0216796      162.11298      0.066391223    0.081095491    0.14748671             0   13.750589     -92.582609      29.610989    
 378               378000   6.6749643      218.44145      0.050231143    0.13459787     0.18482901             0   13.964034     -98.074006      29.583915    
 379               379000   7.2030342      507.50157      0.040083188    0.14524618     0.18532937             0   13.611012     -103.19847      27.324656    
 380               380000   5.0796832      125.89416      0.022249938    0.10242969     0.12467963             0   13.33489      -107.49338      25.335322    
 381               381000   7.5372938      262.0462       0.048249903    0.15198638     0.20023629             0   9.1153184     -113.70009      27.174064    
 382               382000   4.6813054      80.03859       0.0092517769   0.094396569    0.10364835             0   5.2741191     -119.21504      29.122373    
 383               383000   2.8661244      123.9487       0.0025374778   0.057794203    0.060331681            0   5.2291847     -122.39935      36.553141    
 384               384000   11.862623      98.039485      0.025781298    0.23920485     0.26498615             0   16.92052      -121.18541      36.741468    
 385               385000   5.0391494      236.23266      0.015721658    0.10161234     0.117334               0   24.874722     -119.49797      37.923445    
 386               386000   7.5107171      436.9378      -0.020189943    0.15145047     0.13126053             0   28.575814     -122.12958      38.178781    
 387               387000   10.106823      671.34146     -0.0151519      0.20379986     0.18864796             0   27.510555     -123.26146      37.900325    
 388               388000   6.0954371      399.75364     -0.019333179    0.12291195     0.10357877             0   27.479209     -126.75737      38.405445    
 389               389000   6.2864741      398.45267      0.0017135224   0.12676413     0.12847765             0   31.730682     -126.5125       37.768915    
 390               390000   6.5628368      392.6533       0.033829152    0.13233687     0.16616602             0   30.301656     -128.36999      36.930649    
 391               391000   12.229623      729.86399      0.072242701    0.24660525     0.31884795             0   35.788761     -128.43764      35.329921    
 392               392000   10.221259      580.27135      0.031015625    0.20610742     0.23712305             0   41.162695     -130.89097      36.075329    
 393               393000   6.8682575      342.74031      0.067943739    0.13849555     0.20643929             0   44.48869      -135.96669      36.225761    
 394               394000   7.3536629      77.545775      0.042497193    0.14828354     0.19078073             0   48.809141     -139.84531      38.067658    
 395               395000   10.930585      480.80944     -0.024545       0.22041068     0.19586568             0   57.635223     -143.84732      38.086392    
 396               396000   6.8469447      377.80181      0.057642043    0.13806578     0.19570783             0   60.201868     -145.21862      34.706052    
 397               397000   3.5756247      274.01788      0.017433795    0.07210098     0.089534775            0   61.90943      -144.64146      33.614595    
 398               398000   2.4363593      180.26118      0.020949596    0.049128169    0.070077766            0   60.873536     -143.95375      33.550789    
 399               399000   4.3118624      301.17323      0.043814856    0.086946906    0.13076176             0   62.14477      -144.62212      34.086212    
 400               400000   11.451084      594.01705     -0.031161822    0.23090633     0.1997445              0   66.207243     -144.95097      38.374926    
 401               401000   2.4087107      168.63176      0.009724885    0.048570647    0.058295532            0   65.980898     -146.05841      38.130299    
 402               402000   5.4344641      331.41198      0.0039062613   0.1095837      0.11348996             0   66.379413     -145.9665       36.86185     
 403               403000   3.1000872      129.44073     -0.031241172    0.062511965    0.031270793            0   68.194233     -148.07619      37.992872    
 404               404000   5.6507124      408.74033      0.028566848    0.11394426     0.14251111             0   68.688607     -147.98462      38.192524    
 405               405000   1.9865764      116.23694      0.019323827    0.040058483    0.059382311            0   68.686102     -148.94635      38.271865    
 406               406000   4.4408674      225.2816      -0.032368783    0.089548237    0.057179455            0   69.117534     -151.34094      38.534016    
 407               407000   5.1975087      362.18536      0.048791727    0.10480559     0.15359732             0   67.392117     -153.12047      36.886593    
 408               408000   6.6143811      445.76935     -0.040333453    0.13337623     0.093042781            0   65.618047     -154.4252       38.498689    
 409               409000   1.0599187      58.974427     -0.019063783    0.021372817    0.0023090347           0   65.020908     -154.22834      38.196884    
 410               410000   7.3572502      552.9542       0.0054488506   0.14835588     0.15380473             0   63.413738     -153.93501      37.630504    
 411               411000   4.9286756      227.20062     -0.013791095    0.099384687    0.085593592            0   65.663123     -151.07832      37.741776    
 412               412000   5.1213313      211.90357      0.020357303    0.10326951     0.12362681             0   69.722154     -152.10907      37.618287    
 413               413000   3.8209302      189.78612      0.011922735    0.077047463    0.088970197            0   70.625573     -151.80278      34.273712    
 414               414000   8.7270445      203.82513      0.023553466    0.17597721     0.19953068             0   70.240058     -151.80864      37.267273    
 415               415000   1.4667724      97.135136      0.014944984    0.029576854    0.044521838            0   69.198898     -152.63788      34.934403    
 416               416000   5.4011613      271.43261      0.022338961    0.10891216     0.13125112             0   66.203344     -150.68699      37.35256     
 417               417000   3.3953827      231.65196      0.0014827449   0.068466474    0.069949219            0   65.843852     -149.63847      38.124635    
 418               418000   2.489611       78.44106      -0.0040534874   0.050201966    0.046148479            0   66.558922     -148.08401      37.789986    
 419               419000   3.0679737      147.95316     -0.038802077    0.06186441     0.023062333            0   67.574755     -144.69844      37.883777    
 420               420000   7.3980327      511.54776      0.0062051471   0.14917824     0.15538339             0   72.251835     -140.005        36.73364     
 421               421000   10.725274      639.48705      0.01629766     0.21627068     0.23256834             0   75.100964     -137.76266      37.996694    
 422               422000   6.6894373      362.32122      0.034692316    0.13488971     0.16958203             0   73.311344     -132.3213       38.010592    
 423               423000   6.3159904      358.3469       0.041081905    0.12735931     0.16844122             0   72.306423     -135.7645       37.945356    
 424               424000   3.1223426      165.27261      0.01397302     0.062960735    0.076933755            0   68.344379     -134.70008      37.519734    
 425               425000   2.9970376      201.31466      0.039513086    0.060434012    0.099947098            0   68.701051     -133.31051      38.51557     
 426               426000   3.3259459      209.76384      0.019333667    0.06706631     0.086399977            0   66.129371     -133.8459       37.525385    
 427               427000   2.5691807      73.130406     -0.032456161    0.051806456    0.019350294            0   66.494657     -135.62552      38.25275     
 428               428000   3.533633       212.77625      0.033264531    0.071254236    0.10451877             0   66.340184     -132.56282      38.670705    
 429               429000   6.2563399      439.7017      -0.023051304    0.12615648     0.10310518             0   68.571373     -134.28768      38.01359     
 430               430000   3.24944        215.25588     -0.0066871027   0.065523602    0.0588365              0   68.071654     -132.75821      37.566297    
 431               431000   6.4123157      333.98562     -0.012517652    0.12930167     0.11678402             0   70.316203     -133.10218      37.567947    
 432               432000   8.9482399      377.57369      0.054299476    0.18043752     0.234737               0   72.1882       -137.7845       34.166835    
 433               433000   6.3839336      379.78009      0.031266311    0.12872936     0.15999567             0   71.011411     -137.44597      31.567289    
 434               434000   2.9694405      166.14471      0.043963721    0.059877528    0.10384125             0   74.72842      -134.82208      30.029833    
 435               435000   7.2646328      98.681551      0.027917278    0.14648829     0.17440556             0   73.014678     -134.20976      26.436359    
 436               436000   6.9413281      414.35292      0.080196413    0.13996898     0.2201654              0   68.313781     -134.32472      21.927246    
 437               437000   13.479581      1023.3124      0.013112474    0.27181013     0.2849226              0   66.506233     -137.56872      23.110317    
 438               438000   6.0340456      264.97939      0.030388734    0.12167401     0.15206274             0   65.905073     -137.37074      21.042013    
 439               439000   6.6317458      422.81269      0.084096263    0.13372639     0.21782265             0   67.883362     -141.84185      21.449125    
 440               440000   4.8423463      338.73959      0.10732468     0.097643892    0.20496857             0   65.771901     -145.01156      26.25972     
 441               441000   5.0014969      195.02688      0.14901743     0.1008531      0.24987053             0   67.259927     -142.50904      30.48725     
 442               442000   2.4286403      112.35493      0.14725632     0.048972518    0.19622884             0   69.172444     -139.21491      27.331114    
 443               443000   5.7052396      332.30705      0.14239111     0.11504378     0.25743488             0   67.708438     -136.11619      24.063343    
 444               444000   8.7434832      620.43139      0.035694795    0.17630869     0.21200348             0   65.170173     -136.44806      23.637789    
 445               445000   4.8281395      276.83876      0.027064002    0.097357417    0.12442142             0   61.097156     -139.7858       22.811431    
 446               446000   4.1912528      246.97153      0.16298668     0.084514863    0.24750154             0   56.664333     -140.82492      19.581468    
 447               447000   8.4886628      521.04013      0.027232226    0.17117034     0.19840257             0   53.719788     -136.95556      16.703252    
 448               448000   2.4089813      163.97589      0.0098606805   0.048576103    0.058436784            0   50.268956     -132.43849      18.601503    
 449               449000   5.8896404      410.10918      0.022366495    0.11876214     0.14112864             0   48.893988     -132.45539      19.886445    
 450               450000   8.9723599      553.48318      0.14797739     0.18092389     0.32890128             0   46.314542     -132.46357      15.549871    
 451               451000   9.5126726      558.46222      0.0075737718   0.19181907     0.19939284             0   41.747841     -130.68517      14.022466    
 452               452000   6.2149999      191.04531      0.14397469     0.12532288     0.26929757             0   42.834343     -126.96756      22.477853    
 453               453000   6.0498483      428.88823      0.020817192    0.12199267     0.14280986             0   43.630319     -124.15272      25.347794    
 454               454000   8.1779206      599.11971      0.037617852    0.16490436     0.20252221             0   45.729568     -123.86872      24.435453    
 455               455000   6.3408236      310.71289      0.080436536    0.12786006     0.2082966              0   49.494903     -130.24772      21.21442     
 456               456000   6.3160364      394.77354      0.012282832    0.12736024     0.13964307             0   49.102963     -131.37208      16.834569    
 457               457000   7.4317661      471.25426      0.084739713    0.14985846     0.23459817             0   46.274426     -129.80252      13.281136    
 458               458000   10.696963      522.47696     -0.025875127    0.2156998      0.18982468             0   45.945423     -131.54301      11.602848    
 459               459000   9.5843233      515.4582       0.085826221    0.19326388     0.2790901              0   51.28048      -136.60212      17.044192    
 460               460000   6.5554128      420.25912      0.071485367    0.13218716     0.20367253             0   54.206198     -139.03628      19.381516    
 461               461000   9.3860445      347.42033      0.069872379    0.18926567     0.25913805             0   51.004514     -141.73228      18.548453    
 462               462000   6.7557241      253.10984      0.038163195    0.13622636     0.17438955             0   45.841511     -147.02343      23.038811    
 463               463000   4.8837357      358.53781      0.016361241    0.098478493    0.11483973             0   44.297222     -146.94624      27.57424     
 464               464000   10.976691      657.67285      0.0305052      0.22134039     0.2518456              0   42.930688     -143.11431      24.259519    
 465               465000   3.0939672      172.71366      0.077083712    0.062388558    0.13947227             0   39.916119     -144.31156      21.006571    
 466               466000   2.6651348      153.98713      0.060011701    0.053741331    0.11375303             0   38.068789     -145.38559      18.185206    
 467               467000   8.9073931      585.31815      0.03352938     0.17961386     0.21314324             0   41.134374     -144.96669      14.904948    
 468               468000   4.2085752      172.66674      0.011063567    0.084864162    0.095927729            0   43.397179     -144.25333      11.568004    
 469               469000   3.8405862      226.51433      0.042504653    0.077443817    0.11994847             0   44.591097     -145.21042      12.612371    
 470               470000   11.535074      374.66515     -0.02513609     0.23259996     0.20746387             0   49.3816       -145.05025      11.684184    
 471               471000   5.859014       181.49651      0.035204545    0.11814457     0.15334912             0   54.976312     -138.31988      20.630828    
 472               472000   3.7108747      151.05822      0.013651294    0.07482824     0.088479533            0   59.218524     -133.60292      21.953773    
 473               473000   4.3108898      251.32289      0.0050146865   0.086927293    0.09194198             0   61.788784     -128.58962      19.919143    
 474               474000   5.3614455      345.04757      0.019829239    0.10811131     0.12794055             0   61.907353     -128.83238      21.910543    
 475               475000   3.3491672      228.91435      0.014207989    0.067534559    0.081742548            0   59.904598     -127.88925      23.165474    
 476               476000   3.2945228      135.17916      0.055771602    0.066432677    0.12220428             0   54.98116      -129.20724      21.319036    
 477               477000   3.4272014      182.39922      0.016478328    0.069108085    0.085586413            0   54.373213     -125.72886      21.148757    
 478               478000   8.5575854      300.72063      0.015581941    0.17256014     0.18814208             0   51.451716     -122.61913      17.552976    
 479               479000   5.3803919      261.58231      0.0027778713   0.10849336     0.11127123             0   44.457542     -118.99798      17.111162    
 480               480000   5.5428973      96.361358      0.0055459236   0.11177021     0.11731614             0   39.491132     -114.88535      18.726772    
 481               481000   4.1709066      170.67384      0.011085674    0.08410459     0.095190264            0   35.248093     -110.03697      16.460327    
 482               482000   3.6197219      126.01886      0.10006155     0.072990181    0.17305173             0   34.445762     -104.57022      18.120428    
[...]
 9884             9884000   6.5696014      287.4053      -0.021260098    0.13247327     0.11121317             0   157.41878     -619.232        37.873655    
 9885             9885000   4.3472433      188.85886      0.14836331     0.087660346    0.23602365             0   157.08199     -613.5238       38.206488    
 9886             9886000   8.6963763      429.26868      0.019917417    0.1753588      0.19527622             0   148.57115     -612.41591      37.548656    
 9887             9887000   3.1850081      141.64068      0.073238657    0.06422436     0.13746302             0   145.95509     -615.6852       37.961381    
 9888             9888000   3.8575903      187.94842     -0.0062275958   0.077786698    0.071559102            0   141.04743     -614.76198      38.306043    
 9889             9889000   3.8824541      228.02294     -0.044699585    0.078288067    0.033588482            0   140.78047     -615.97365      38.380301    
 9890             9890000   5.0751556      266.58503      0.010543315    0.1023384      0.11288171             0   141.22674     -615.96729      38.240783    
 9891             9891000   3.2209584      184.17048     -0.016089529    0.064949282    0.048859753            0   140.23219     -618.18595      37.874623    
 9892             9892000   6.3605464      438.18789      0.015748887    0.12825776     0.14400665             0   138.03514     -617.86451      37.564689    
 9893             9893000   6.5041902      478.39634     -0.054236843    0.13115428     0.076917438            0   136.46936     -617.12421      38.586764    
 9894             9894000   3.1044326      171.26871      0.094271723    0.062599588    0.15687131             0   138.8082      -615.53473      37.657949    
 9895             9895000   4.7881606      275.62232      0.005250256    0.096551261    0.10180152             0   137.3763      -612.33044      36.926331    
 9896             9896000   8.257901       527.48176     -0.013610289    0.16651713     0.15290684             0   137.99044     -609.48531      37.430975    
 9897             9897000   9.6933094      754.27721     -0.018424704    0.19546154     0.17703683             0   138.90548     -606.26638      38.162175    
 9898             9898000   1.1720165      41.71713       0.015286012    0.023633223    0.038919236            0   138.47176     -605.6829       37.647857    
 9899             9899000   8.5147405      562.35628      0.011363078    0.17169619     0.18305927             0   136.28469     -606.80847      38.248734    
 9900             9900000   13.622995      471.98418     -0.015780103    0.274702       0.2589219              0   139.00089     -605.34622      38.151055    
 9901             9901000   3.8849272      103.78415      0.094995256    0.078337936    0.17333319             0   137.99705     -600.88427      30.422812    
 9902             9902000   3.2563963      138.43002      0.047476056    0.065663873    0.11313993             0   139.39281     -602.75655      26.771341    
 9903             9903000   6.2144832      401.03935      0.013790914    0.12531246     0.13910337             0   143.46378     -602.81         23.781237    
 9904             9904000   4.4046544      240.2473       0.083644973    0.088818018    0.17246299             0   149.08329     -599.86647      19.404138    
 9905             9905000   4.3350203      130.08185      0.035878229    0.087413875    0.1232921              0   153.13451     -596.45273      20.86471     
 9906             9906000   3.215888       79.196374      0.035164762    0.06484704     0.1000118              0   157.05732     -592.7533       20.433291    
 9907             9907000   6.743668       56.495974      0.0059426124   0.13598325     0.14192586             0   153.54006     -585.05344      23.998373    
 9908             9908000   6.9209834      211.54666      0.06178719     0.13955874     0.20134593             0   147.53527     -578.69598      23.144762    
 9909             9909000   9.4681057      253.63356      0.056651813    0.1909204      0.24757221             0   142.68473     -577.51156      16.612073    
 9910             9910000   2.4848712      163.37875      0.073765492    0.05010639     0.12387188             0   138.30123     -579.35871      15.550999    
 9911             9911000   4.9423452      270.14914      0.048824653    0.099660327    0.14848498             0   133.79483     -581.02834      15.652226    
 9912             9912000   10.767957      499.36079      0.082755301    0.21713136     0.29988666             0   130.48732     -588.18508      13.794656    
 9913             9913000   5.4253263      266.9639       0.13845357     0.10939944     0.24785301             0   131.12016     -593.18204      15.405727    
 9914             9914000   2.6633897      83.482355      0.024019371    0.053706142    0.077725513            0   128.80864     -592.85912      21.023974    
 9915             9915000   1.4074437      102.05823      0.035389016    0.028380515    0.063769531            0   129.46691     -591.29054      24.383019    
 9916             9916000   2.9629646      140.93357      0.03118005     0.059746944    0.090926994            0   130.47359     -587.29461      27.280294    
 9917             9917000   4.4300599      188.76021      0.011963872    0.089330308    0.10129418             0   134.24629     -585.51157      30.048206    
 9918             9918000   4.9202766      229.07347      0.026116127    0.099215325    0.12533145             0   139.82106     -586.91493      24.814641    
 9919             9919000   6.8415353      319.06204      0.077197425    0.1379567      0.21515413             0   142.98374     -591.98687      23.025571    
 9920             9920000   6.7478242      95.753729      0.028986062    0.13606706     0.16505312             0   144.2125      -599.31471      22.971894    
 9921             9921000   5.8802974      130.75225      0.014441187    0.11857374     0.13301493             0   145.60555     -606.06684      21.821667    
 9922             9922000   4.540382       303.43345      0.048862198    0.091554909    0.14041711             0   146.82125     -608.39422      18.732246    
 9923             9923000   4.9015527      147.14269      0.016288084    0.098837764    0.11512585             0   142.02553     -607.08869      20.397816    
 9924             9924000   8.3093499      415.93039      0.073098655    0.16755457     0.24065323             0   136.97905     -603.94672      21.95547     
 9925             9925000   8.6354509      233.11289      0.033370473    0.17413026     0.20750074             0   132.86937     -598.48718      24.542943    
 9926             9926000   3.2124133      138.00572      0.0038425684   0.064776973    0.068619541            0   125.83853     -595.9          29.301811    
 9927             9927000   6.5130596      229.06403      0.02132728     0.13133313     0.15266041             0   121.88806     -593.88117      31.349207    
 9928             9928000   8.8524537      337.67716      0.0066258486   0.17850603     0.18513188             0   114.30223     -595.47644      29.229685    
 9929             9929000   3.8228639      164.97066      0.056034248    0.077086455    0.1331207              0   110.1082      -595.85842      26.384519    
 9930             9930000   5.8515208      256.55367      0.031764519    0.11799348     0.14975799             0   114.46885     -592.07083      24.385267    
 9931             9931000   3.7328344      192.20704      0.0047246075   0.075271048    0.079995655            0   119.024       -586.52339      23.360646    
 9932             9932000   2.3032017      136.97977      0.038125024    0.0464431      0.084568124            0   121.88859     -583.93232      24.315459    
 9933             9933000   3.6441839      255.34653      0.048274928    0.073483448    0.12175838             0   125.67256     -586.87402      24.764126    
 9934             9934000   10.405928      768.49357      0.0031602634   0.20983119     0.21299145             0   124.85313     -588.94821      24.319746    
 9935             9935000   9.2666257      503.52638      0.029945657    0.18685764     0.2168033              0   120.27057     -585.95739      22.874462    
 9936             9936000   5.1843485      269.8982       0.035019698    0.10454022     0.13955992             0   115.21722     -589.85978      25.176202    
 9937             9937000   4.4447227      228.77271      0.050375398    0.089625978    0.14000138             0   118.26741     -593.22011      27.17276     
 9938             9938000   5.024244       307.90118      0.034671574    0.10131178     0.13598336             0   121.87066     -593.37218      28.943409    
 9939             9939000   2.7516777      98.356747      0.12529588     0.055486432    0.18078231             0   122.83626     -598.85654      28.308745    
 9940             9940000   4.3156041      273.92679      0.007148848    0.087022356    0.094171204            0   120.95461     -603.23107      29.68538     
 9941             9941000   4.9518549      273.54824      0.045862247    0.099852087    0.14571433             0   118.84809     -601.16621      27.420914    
 9942             9942000   3.7429116      63.350065      0.022484906    0.07547425     0.097959156            0   118.68776     -594.85472      26.1685      
 9943             9943000   4.3455421      176.15916      0.02616869     0.087626044    0.11379473             0   121.5539      -586.35779      24.969458    
 9944             9944000   5.4896026      352.73105      0.0058314609   0.11069554     0.11652701             0   125.017       -582.04383      23.975146    
 9945             9945000   6.5170999      469.64986      0.10639527     0.1314146      0.23780987             0   124.48552     -580.94836      25.31213     
 9946             9946000   14.721384      753.30637      0.11616784     0.29685056     0.4130184              0   122.71623     -585.72324      22.229414    
 9947             9947000   8.7167345      471.39262      0.031760946    0.17576931     0.20753026             0   119.10166     -590.24923      22.913638    
 9948             9948000   6.3241904      231.11378      0.061706378    0.12752466     0.18923104             0   119.02072     -598.53963      25.398499    
 9949             9949000   5.6572777      400.38154      0.10630172     0.11407664     0.22037836             0   117.43932     -602.10271      27.364434    
 9950             9950000   6.6410341      359.91402      0.030470617    0.13391368     0.1643843              0   114.6254      -600.6306       27.493053    
 9951             9951000   3.7526092      181.51444      0.046272439    0.075669799    0.12194224             0   114.3145      -598.02001      23.908488    
 9952             9952000   3.9206065      203.49283      0.045997187    0.079057394    0.12505458             0   114.82957     -598.31324      22.359626    
 9953             9953000   12.213823      612.27789      0.0056195205   0.24628664     0.25190616             0   113.48827     -602.56614      25.349758    
 9954             9954000   3.9165202      253.60101      0.032460454    0.078974996    0.11143545             0   113.75759     -607.20594      28.790344    
 9955             9955000   3.8428231      201.18125      0.0028299075   0.077488923    0.08031883             0   114.98786     -606.5479       27.482499    
 9956             9956000   5.7211497      139.34933      0.1558232      0.1153646      0.2711878              0   115.21365     -609.27704      22.557734    
 9957             9957000   10.612736      601.71182      0.042544819    0.2140014      0.25654622             0   116.88334     -613.21373      17.39958     
 9958             9958000   10.136142      307.9864       0.047966082    0.20439107     0.25235715             0   121.94329     -620.41073      12.858119    
 9959             9959000   4.2435476      141.66722      0.014879713    0.085569367    0.10044908             0   114.98553     -625.10409      13.695854    
 9960             9960000   7.6256113      378.24922      0.073962367    0.15376727     0.22772964             0   111.74812     -630.4136       14.09821     
 9961             9961000   12.402639      344.71737      0.026479408    0.25009404     0.27657344             0   108.40042     -632.49717      12.803829    
 9962             9962000   3.0407219      213.71704      0.013122379    0.061314888    0.074437267            0   107.33224     -628.6846       18.881857    
 9963             9963000   8.3859412      237.71816      0.03380172     0.169099       0.20290072             0   112.50095     -624.31363      18.395529    
 9964             9964000   4.21718        230.99569      0.0010846841   0.085037675    0.086122359            0   113.83849     -619.57693      18.596559    
 9965             9965000   3.5918651      255.23354      0.0080664151   0.072428461    0.080494876            0   112.03249     -617.49896      19.952788    
 9966             9966000   4.6242664      210.00601      0.021040475    0.093246402    0.11428688             0   111.11901     -611.72363      19.703299    
 9967             9967000   4.5534315      290.43304      0.0045529471   0.091818045    0.096370992            0   111.67093     -608.23245      19.256948    
 9968             9968000   3.4774477      180.7557       0.046994794    0.070121282    0.11711608             0   112.86657     -608.61311      16.999144    
 9969             9969000   7.8295977      335.00175      0.01576588     0.15788057     0.17364645             0   112.95504     -607.29183      14.089072    
 9970             9970000   5.7593784      330.34982      0.12232426     0.11613546     0.23845973             0   112.21706     -605.39652      12.11592     
 9971             9971000   5.0264281      273.27541     -0.012386672    0.10135582     0.088969152            0   112.46704     -605.84081      11.730289    
 9972             9972000   5.3757228      240.27745      0.071673547    0.10839921     0.18007275             0   107.71731     -604.36668      14.400987    
 9973             9973000   6.8584961      209.37895      0.11604083     0.13829871     0.25433954             0   110.12924     -606.57694      16.698701    
 9974             9974000   3.9443755      102.24247      0.080644533    0.079536685    0.16018122             0   114.67931     -604.64062      18.252875    
 9975             9975000   7.2465674      275.70523      0.026908811    0.14612401     0.17303282             0   119.45063     -603.55534      20.767622    
 9976             9976000   7.1202191      345.64957      0.021200078    0.14357625     0.16477632             0   123.81471     -598.15818      25.868709    
 9977             9977000   2.8708727      162.42821      0.096370132    0.057889949    0.15426008             0   125.11419     -594.7282       27.338697    
 9978             9978000   3.348939       183.3796       0.019258567    0.067529956    0.086788524            0   125.52292     -594.86599      24.543077    
 9979             9979000   3.2317289      170.20739      0.056625748    0.065166465    0.12179221             0   125.61785     -597.99459      19.575371    
 9980             9980000   3.7970561      263.74959      0.022289963    0.076566052    0.098856016            0   123.32455     -598.65132      15.298953    
 9981             9981000   9.2323973      530.09693      0.056676724    0.18616744     0.24284416             0   119.35321     -600.28149      17.525054    
 9982             9982000   8.8733053      180.76547      0.00040903458  0.1789265      0.17933553             0   113.73803     -599.33155      12.800274    
 9983             9983000   3.9872783      206.35446     -0.045438457    0.080401802    0.034963345            0   116.33602     -597.51505      11.771401    
 9984             9984000   7.6260149      471.36891     -0.017289713    0.15377541     0.13648569             0   114.00899     -596.5314       12.09656     
 9985             9985000   4.7059705      332.42336     -0.033319739    0.09489393     0.061574191            0   113.7414      -598.54794      11.956696    
 9986             9986000   10.106982      547.88077     -0.0090492381   0.20380307     0.19475384             0   112.74523     -602.52715      11.955166    
 9987             9987000   9.7352665      350.03968      0.047707501    0.19630759     0.24401509             0   115.85943     -601.54159      11.402591    
 9988             9988000   7.0930875      256.25121      0.043949902    0.14302915     0.18697905             0   119.8697      -596.38778      15.276834    
 9989             9989000   3.3884798      127.93502      0.045529246    0.068327281    0.11385653             0   121.5348      -589.91773      18.071556    
 9990             9990000   6.1764607      231.47867      0.02141823     0.12454575     0.14596398             0   126.04572     -589.55492      18.389018    
 9991             9991000   4.6111318      114.03237      0.02372284     0.092981548    0.11670439             0   134.30981     -593.46322      22.275079    
 9992             9992000   1.856555       84.358883      0.040728325    0.037436656    0.078164981            0   136.33012     -591.56779      23.595148    
 9993             9993000   5.0985629      369.10349      0.0088042438   0.10281039     0.11161464             0   140.44528     -592.82418      22.762447    
 9994             9994000   4.5987886      175.43812      0.014362819    0.092732653    0.10709547             0   141.96677     -596.25888      22.60042     
 9995             9995000   3.9701121      195.57023      0.043457741    0.080055653    0.12351339             0   142.09773     -597.97363      18.539876    
 9996             9996000   3.4733871      179.63931      0.015180501    0.070039401    0.085219902            0   142.42682     -597.82825      17.848176    
 9997             9997000   1.9830645      105.72442      0.041711235    0.039987669    0.081698904            0   143.72425     -597.78738      22.753362    
 9998             9998000   4.5828343      151.52743      0.036511614    0.092410941    0.12892256             0   147.35136     -600.55289      26.247745    
 9999             9999000   5.4681451      130.22663      0.026630168    0.11026286     0.13689303             0   153.15517     -603.30727      27.47321     
 10000           10000000   9.9838681      285.30705      0.035323976    0.20132053     0.23664451             0   163.95363     -604.21789      28.215251    
Loop time of 124.717 on 6 procs for 10000000 steps with 157 atoms

Performance: 6927.688 ns/day, 0.003 hours/ns, 80181.570 timesteps/s, 12.589 Matom-step/s
73.8% CPU use with 6 MPI tasks x no OpenMP threads

MPI task timing breakdown:
Section |  min time  |  avg time  |  max time  |%varavg| %total
---------------------------------------------------------------
Pair    | 2.4115     | 2.6009     | 2.9324     |  10.8 |  2.09
Bond    | 0.60389    | 0.65991    | 0.70414    |   3.9 |  0.53
Neigh   | 4.7851     | 4.9086     | 5.0553     |   4.0 |  3.94
Comm    | 89.945     | 94.017     | 96.422     |  23.5 | 75.38
Output  | 0.70387    | 0.78504    | 0.82864    |   4.5 |  0.63
Modify  | 1.9264     | 2.1002     | 2.3224     |   8.2 |  1.68
Other   |            | 19.65      |            |       | 15.75

Nlocal:        26.1667 ave          29 max          22 min
Histogram: 1 0 1 0 0 0 0 2 1 1
Nghost:        381.833 ave         399 max         372 min
Histogram: 3 1 0 0 0 0 0 0 0 2
Neighs:       0.166667 ave           1 max           0 min
Histogram: 5 0 0 0 0 0 0 0 0 1

Total # of neighbors = 1
Ave neighs/atom = 0.0063694268
Ave special neighs/atom = 0.038216561
Neighbor list builds = 205473
Dangerous builds = 0




Total wall time: 0:02:04
