LAMMPS (2 Aug 2023 - Update 1)

units           metal                   # eV, Ang, ps
variable        kcal_mol equal 43.36e-3 # eV
atom_style      full
boundary        f f f

bond_style      harmonic
angle_style     harmonic

read_data       water_droplet.data
Reading data file ...
  orthogonal box = (50 50 0) to (150 150 100)
  1 by 2 by 3 MPI processor grid
  reading atoms ...
  3801 atoms
  scanning bonds ...
  2 = max bonds/atom
  scanning angles ...
  1 = max angles/atom
  reading bonds ...
  2534 bonds
  reading angles ...
  1267 angles
Finding 1-2 1-3 1-4 neighbors ...
  special bond factors lj:    0        0        0       
  special bond factors coul:  0        0        0       
     2 = max # of 1-2 neighbors
     1 = max # of 1-3 neighbors
     1 = max # of 1-4 neighbors
     2 = max # of special neighbors
  special bonds CPU = 0.000 seconds
  read_data CPU = 0.052 seconds

timestep        1e-3
neighbor        2.0 bin
neigh_modify    every 1 delay 0 check yes one 5000

group           water type 1 2
3801 atoms in group water

######### PAIR STYLE AND COEFFS #####################################################
pair_style      hybrid/overlay                                  lj/smooth/linear 10.0                           tip4p/cut 1 2 1 1 0.1546 20.0

# water-water LJ interaction
pair_coeff      *   *     lj/smooth/linear   0.00                0.00
pair_coeff      1   1     lj/smooth/linear $(0.1852*v_kcal_mol) 3.1589 # TIP4P/2005
pair_coeff      1   1     lj/smooth/linear 0.0080302720000000014922 3.1589 

# water-water Coulomb interaction
pair_coeff      1*2 1*2   tip4p/cut

# TIP4P/2005
bond_coeff      1 0.0 0.9572
angle_coeff     1 0.0 104.52
set             type 1 charge -1.1128
Setting atom values ...
  1267 settings made for charge
set             type 2 charge  0.5564
Setting atom values ...
  2534 settings made for charge


######### FIXES #####################################################
fix             1 water langevin 300.0 300.0 0.1 4567
fix             2 water rigid/nve/small molecule
  create bodies CPU = 0.002 seconds
  1267 rigid bodies with 3801 atoms
  0.95731773 = max distance from body owner to body atom
compute         Twater water temp/com

comm_style tiled
#fix 3 all balance 1000 1.0 shift xyz 5 1.1


######### OUTPUT ####################################################
thermo_style    custom time step temp c_Twater pe ke etotal ndanger
thermo          100

dump            mydump  water custom 1000 traj_droplet.dump type x y z
dump_modify     mydump  first yes flush yes

run 1000000
WARNING: Communication cutoff 0 is shorter than a bond length based estimate of 3.4358. This may lead to errors. (../comm.cpp:723)
WARNING: Increasing communication cutoff to 23.1118 for TIP4P pair style (../pair_tip4p_cut.cpp:441)
Generated 0 of 1 mixed pair_coeff terms from geometric mixing rule
Neighbor list info ...
  update: every = 1 steps, delay = 0 steps, check = yes
  max neighbors/atom: 5000, page size: 100000
  master list distance cutoff = 22.3092
  ghost atom cutoff = 23.1118
  binsize = 11.1546, bins = 9 9 9
  2 neighbor lists, perpetual/occasional/extra = 2 0 0
  (1) pair lj/smooth/linear, perpetual, trim from (2)
      attributes: half, newton on, cut 12
      pair build: trim
      stencil: none
      bin: none
  (2) pair tip4p/cut, perpetual
      attributes: half, newton on
      pair build: half/bin/newton
      stencil: half/bin/3d
      bin: standard
WARNING: Dump mydump includes no atom IDs and is not sorted by ID. This may complicate post-processing tasks or visualization (../dump.cpp:221)
Per MPI rank memory allocation (min/avg/max) = 12.36 | 15.35 | 18.13 Mbytes
     Time         Step          Temp         c_Twater        PotEng         KinEng         TotEng       Ndanger  
 0                      0   0              0             -756.04778      0             -756.04778              0 
 0.1                  100   234.5766       234.47117     -526.42933      76.804119     -449.62521              0 
 0.2                  200   274.96636      274.90817     -453.80511      90.028371     -363.77674              0 
 0.3                  300   302.7551       302.6439      -615.56405      99.126849     -516.4372               0 
 0.4                  400   295.48708      295.29999     -682.2996       96.747183     -585.55242              0 
 0.5                  500   303.46996      303.35573     -640.14708      99.360903     -540.78618              0 
 0.6                  600   293.19376      293.1475      -494.01925      95.996311     -398.02294              0 
 0.7                  700   301.68646      301.32406     -555.74667      98.776957     -456.96972              0 
 0.8                  800   305.42161      304.9432      -503.28154      99.999905     -403.28164              0 
 0.9                  900   307.95633      307.5288      -509.47188      100.82981     -408.64207              0 
 1                   1000   309.00026      308.6834      -595.54702      101.17161     -494.37541              0 
 1.1                 1100   307.77448      307.65497     -416.79747      100.77027     -316.0272               0 
 1.2                 1200   306.92365      306.7981      -466.02246      100.4917      -365.53076              0 
 1.3                 1300   307.85274      307.80151     -420.83927      100.7959      -320.04337              0 
 1.4                 1400   307.60849      307.56735     -601.6936       100.71593     -500.97768              0 
 1.5                 1500   307.64987      307.58332     -581.38192      100.72947     -480.65245              0 
 1.6                 1600   303.0024       302.64638     -572.02964      99.207818     -472.82182              0 
 1.7                 1700   298.59311      298.52591     -471.25343      97.764146     -373.48929              0 
 1.8                 1800   300.9777       300.81263     -671.92438      98.544898     -573.37948              0 
 1.9                 1900   298.67921      298.5912      -623.88486      97.792336     -526.09252              0 
 2                   2000   301.87486      301.57092     -766.39848      98.838642     -667.55983              0 
 2.1                 2100   295.93785      295.87496     -497.03768      96.89477      -400.14291              0 
 2.2                 2200   302.99247      302.96708     -509.957        99.204568     -410.75243              0 
 2.3                 2300   298.22553      298.20805     -485.04975      97.643795     -387.40596              0 
 2.4                 2400   305.90061      305.79549     -519.34773      100.15674     -419.19099              0 
 2.5                 2500   302.83386      302.66839     -566.86004      99.152636     -467.7074               0 
 2.6                 2600   300.24639      300.19928     -655.22085      98.305457     -556.91539              0 
 2.7                 2700   300.01025      299.89149     -475.94495      98.228141     -377.71681              0 
 2.8                 2800   300.72811      300.63727     -566.28424      98.463179     -467.82106              0 
 2.9                 2900   300.33304      300.3033      -578.39337      98.333828     -480.05955              0 
 3                   3000   300.67713      300.62514     -570.8064       98.446486     -472.35991              0 
 3.1                 3100   303.68193      303.63235     -596.11235      99.430307     -496.68204              0 
 3.2                 3200   297.88048      297.63785     -532.96057      97.530819     -435.42975              0 
 3.3                 3300   299.19703      299.01536     -469.24399      97.96188      -371.28211              0 
 3.4                 3400   306.1094       306.07793     -532.79392      100.2251      -432.56882              0 
 3.5                 3500   298.37778      298.30579     -529.40853      97.693642     -431.71489              0 
 3.6                 3600   302.08411      301.80041     -535.05954      98.907156     -436.15239              0 
 3.7                 3700   303.91764      303.54795     -518.88635      99.507483     -419.37887              0 
 3.8                 3800   299.74794      299.71891     -676.15107      98.142257     -578.00881              0 
 3.9                 3900   302.45352      302.40459     -356.41148      99.028106     -257.38338              0 
 4                   4000   306.28761      306.2522      -587.97224      100.28345     -487.68879              0 
 4.1                 4100   286.32632      286.23437     -626.98902      93.747802     -533.24122              0 
 4.2                 4200   297.59068      297.31566     -522.85295      97.435935     -425.41701              0 
 4.3                 4300   303.0536       302.9054      -647.09371      99.224581     -547.86912              0 
 4.4                 4400   296.26145      296.23036     -586.22177      97.000722     -489.22105              0 
 4.5                 4500   305.94939      305.87798     -652.423        100.17271     -552.25029              0 
 4.6                 4600   304.40054      304.27532     -417.22535      99.66559      -317.55976              0 
 4.7                 4700   305.10379      305.06351     -549.43936      99.895845     -449.54352              0 
 4.8                 4800   302.21506      302.12541     -523.51614      98.950031     -424.56611              0 
 4.9                 4900   299.72564      299.59143     -497.12818      98.134954     -398.99323              0 
 5                   5000   309.67344      309.597       -551.08682      101.39202     -449.6948               0 
 5.1                 5100   311.62936      311.61939     -577.53197      102.03242     -475.49955              0 
 5.2                 5200   295.08727      294.96746     -670.65112      96.616278     -574.03484              0 
 5.3                 5300   299.82449      299.77149     -601.57591      98.16732      -503.40859              0 
 5.4                 5400   295.96929      295.8945      -417.97146      96.905065     -321.06639              0 
 5.5                 5500   312.5491       312.33908     -501.92603      102.33356     -399.59247              0 
 5.6                 5600   297.89137      297.79045     -533.39013      97.534385     -435.85575              0 
 5.7                 5700   299.35159      299.23556     -399.78873      98.012484     -301.77625              0 
 5.8                 5800   294.85904      294.66842     -504.97737      96.541551     -408.43582              0 
 5.9                 5900   301.97138      301.63525     -512.20701      98.870245     -413.33677              0 
 6                   6000   298.15394      298.13018     -477.67359      97.620356     -380.05323              0 
 6.1                 6100   294.28317      294.18632     -737.64818      96.353002     -641.29518              0 
 6.2                 6200   304.95593      304.75954     -430.86672      99.847435     -331.01929              0 
 6.3                 6300   298.79919      298.59279     -384.77523      97.83162      -286.94361              0 
 6.4                 6400   296.0163       295.95577     -696.70536      96.920457     -599.7849               0 
 6.5                 6500   291.15861      291.10145     -498.02899      95.329971     -402.69902              0 
 6.6                 6600   292.60634      292.47467     -553.88423      95.803982     -458.08025              0 
 6.7                 6700   303.88923      303.82834     -589.0963       99.498181     -489.59812              0 
 6.8                 6800   295.77218      295.75426     -669.62598      96.840527     -572.78545              0 
 6.9                 6900   296.16857      296.00666     -398.29685      96.970313     -301.32653              0 
 7                   7000   303.72588      303.68345     -599.13221      99.444698     -499.68751              0 
 7.1                 7100   293.28286      292.84528     -510.30584      96.025486     -414.28035              0 
 7.2                 7200   299.94807      299.75721     -629.16902      98.20778      -530.96124              0 
 7.3                 7300   302.21229      301.85178     -548.83384      98.949122     -449.88472              0 
 7.4                 7400   299.67486      299.63997     -560.88002      98.118328     -462.76169              0 
 7.5                 7500   303.10029      302.94997     -603.88877      99.239867     -504.6489               0 
 7.6                 7600   301.78009      301.7295      -525.06805      98.807614     -426.26044              0 
 7.7                 7700   303.29108      302.98267     -484.38926      99.302337     -385.08692              0 
 7.8                 7800   313.26079      312.93628     -505.60449      102.56658     -403.03791              0 
 7.9                 7900   304.20668      304.05997     -431.4745       99.602119     -331.87238              0 
 8                   8000   304.55711      304.36137     -741.18197      99.716854     -641.46511              0 
 8.1                 8100   293.59097      293.47666     -564.43521      96.126365     -468.30884              0 
 8.2                 8200   301.87012      301.70997     -431.49344      98.83709      -332.65635              0 
 8.3                 8300   289.67937      289.66199     -519.72822      94.845645     -424.88258              0 
 8.4                 8400   301.46383      301.26774     -690.8784       98.704067     -592.17433              0 
 8.5                 8500   300.37334      300.27233     -545.62249      98.34702      -447.27547              0 
 8.6                 8600   306.33776      306.20689     -713.40398      100.29987     -613.10411              0 
 8.7                 8700   304.90195      304.84695     -540.20622      99.829762     -440.37646              0 
 8.8                 8800   298.70827      298.67628     -574.72977      97.801851     -476.92792              0 
 8.9                 8900   302.69158      302.45628     -602.27939      99.106049     -503.17334              0 
 9                   9000   297.09001      297.04461     -580.07852      97.272006     -482.80652              0 
 9.1                 9100   301.65516      301.46287     -558.20641      98.766709     -459.4397               0 
 9.2                 9200   298.28827      298.19359     -399.75063      97.664336     -302.0863               0 
 9.3                 9300   292.8588       292.80084     -657.5594       95.886641     -561.67276              0 
 9.4                 9400   305.71205      305.67839     -586.4071       100.095       -486.3121               0 
 9.5                 9500   296.89776      296.80084     -687.85091      97.209062     -590.64185              0 
 9.6                 9600   306.78428      306.76205     -544.88686      100.44607     -444.44079              0 
 9.7                 9700   294.97585      294.88888     -562.80813      96.579797     -466.22833              0 
 9.8                 9800   301.55474      301.50155     -618.70025      98.733832     -519.96642              0 
 9.9                 9900   290.00938      289.9821      -557.00318      94.953695     -462.04948              0 
 10                 10000   301.19328      301.04091     -658.49079      98.615485     -559.87531              0 
 10.1               10100   300.60879      300.59631     -607.71933      98.424113     -509.29522              0 
 10.2               10200   304.29232      304.23361     -480.86206      99.630158     -381.2319               0 
 10.3               10300   307.31606      307.25487     -611.45632      100.62018     -510.83614              0 
 10.4               10400   298.1463       298.10993     -496.98779      97.617852     -399.36994              0 
 10.5               10500   308.27927      308.13952     -672.48116      100.93555     -571.54561              0 
 10.6               10600   297.68695      297.5083      -498.5171       97.467455     -401.04964              0 
 10.7               10700   293.57237      293.21161     -605.1757       96.120276     -509.05542              0 
 10.8               10800   299.76545      299.72305     -513.48493      98.147987     -415.33695              0 
 10.9               10900   302.92613      302.79306     -503.39647      99.182845     -404.21362              0 
 11                 11000   305.97809      305.37711     -648.96482      100.18211     -548.78271              0 
 11.1               11100   301.60221      301.35885     -504.49301      98.749374     -405.74363              0 
 11.2               11200   302.00134      301.91831     -697.30455      98.880055     -598.4245               0 
 11.3               11300   295.52709      295.48904     -599.29035      96.760282     -502.53007              0 
 11.4               11400   305.3097       305.17454     -505.02219      99.963266     -405.05892              0 
 11.5               11500   300.97955      300.92761     -509.74396      98.545505     -411.19845              0 
 11.6               11600   302.20088      302.06586     -555.56472      98.945388     -456.61934              0 
 11.7               11700   297.70449      297.59153     -434.69874      97.473198     -337.22554              0 
 11.8               11800   302.81265      302.79168     -451.03171      99.145692     -351.88602              0 
 11.9               11900   297.95861      297.76939     -616.33299      97.5564       -518.77659              0 
 12                 12000   305.40787      305.31226     -468.73267      99.995407     -368.73727              0 
 12.1               12100   294.23013      294.16059     -347.64406      96.335637     -251.30842              0 
 12.2               12200   296.60915      296.55019     -647.9661       97.114565     -550.85154              0 
 12.3               12300   296.31838      296.22879     -467.98046      97.019362     -370.9611               0 
 12.4               12400   300.33052      300.1807      -445.82562      98.333001     -347.49262              0 
 12.5               12500   297.03698      296.99196     -537.72292      97.254644     -440.46828              0 
 12.6               12600   301.56068      301.23975     -436.42796      98.735774     -337.69218              0 
 12.7               12700   299.03844      298.96018     -506.7988       97.909954     -408.88884              0 
 12.8               12800   299.67352      299.65682     -449.61948      98.117891     -351.50159              0 
 12.9               12900   297.95591      297.77494     -531.83195      97.555517     -434.27644              0 
 13                 13000   296.70386      296.66651     -477.11429      97.145577     -379.96871              0 
 13.1               13100   305.30698      305.21955     -673.73505      99.962375     -573.77268              0 
 13.2               13200   304.28967      304.24829     -424.45341      99.629292     -324.82412              0 
 13.3               13300   303.35867      303.25282     -488.32134      99.324466     -388.99687              0 
 13.4               13400   302.41949      302.02001     -581.60138      99.016962     -482.58442              0 
 13.5               13500   298.55407      298.39471     -369.84854      97.751363     -272.09718              0 
 13.6               13600   294.78236      294.56351     -620.33087      96.516446     -523.81442              0 
 13.7               13700   295.6202       295.51896     -557.69833      96.790767     -460.90756              0 
 13.8               13800   296.29449      296.27706     -366.87363      97.011541     -269.86209              0 
 13.9               13900   306.00475      305.94672     -481.82992      100.19084     -381.63908              0 
 14                 14000   294.11844      293.93303     -603.458        96.299068     -507.15893              0 
 14.1               14100   302.39579      302.33429     -683.44713      99.009203     -584.43793              0 
 14.2               14200   304.99954      304.83982     -628.45714      99.861715     -528.59543              0 
 14.3               14300   296.44126      296.18142     -634.40211      97.059596     -537.34251              0 
 14.4               14400   296.17352      295.89968     -520.88674      96.971932     -423.91481              0 
 14.5               14500   301.03778      300.82359     -472.21502      98.56457      -373.65045              0 
 14.6               14600   297.98181      297.72765     -601.44161      97.563997     -503.87761              0 
 14.7               14700   299.81212      299.7131      -544.93478      98.163268     -446.77151              0 
 14.8               14800   299.52036      299.45569     -431.42011      98.067743     -333.35236              0 
 14.9               14900   297.9944       297.95484     -608.47957      97.568117     -510.91145              0 
 15                 15000   309.62738      309.53883     -498.67821      101.37694     -397.30127              0 
 15.1               15100   301.47432      301.21876     -459.16328      98.707501     -360.45577              0 
 15.2               15200   303.18126      303.10879     -511.10951      99.266379     -411.84314              0 
 15.3               15300   299.47783      299.25978     -553.85063      98.053816     -455.79681              0 
 15.4               15400   304.94834      304.73632     -534.37854      99.844949     -434.53359              0 
 15.5               15500   304.1188       303.94349     -559.82148      99.573343     -460.24814              0 
 15.6               15600   303.87482      303.77325     -619.32437      99.493462     -519.83091              0 
 15.7               15700   305.39594      305.33857     -502.41576      99.991501     -402.42426              0 
 15.8               15800   303.56198      303.39876     -447.65837      99.391034     -348.26734              0 
 15.9               15900   293.8836       293.77292     -540.23601      96.222176     -444.01384              0 
 16                 16000   295.90621      295.7638      -303.36968      96.884413     -206.48527              0 
 16.1               16100   293.31825      293.11585     -640.095        96.037073     -544.05792              0 
 16.2               16200   301.5051       301.33935     -577.04028      98.717579     -478.3227               0 
 16.3               16300   292.78652      292.5167      -384.99187      95.862976     -289.12889              0 
 16.4               16400   294.91976      294.90703     -421.07492      96.561432     -324.51349              0 
 16.5               16500   303.09445      302.99716     -437.44905      99.237958     -338.21109              0 
 16.6               16600   296.28115      295.9544      -639.66754      97.007172     -542.66037              0 
 16.7               16700   302.15423      302.07439     -332.11039      98.930112     -233.18027              0 
 16.8               16800   301.58062      301.42086     -454.27228      98.742305     -355.52997              0 
 16.9               16900   293.68647      293.47564     -664.31095      96.157632     -568.15332              0 
 17                 17000   295.95433      295.84273     -485.4862       96.900169     -388.58603              0 
 17.1               17100   313.12633      313.10829     -486.0036       102.52255     -383.48105              0 
 17.2               17200   308.06484      308.01965     -545.0268       100.86534     -444.16146              0 
 17.3               17300   314.38074      314.30437     -497.0645       102.93327     -394.13123              0 
 17.4               17400   303.33398      303.32134     -328.2641       99.316383     -228.94772              0 
 17.5               17500   303.28497      303.1069      -605.8719       99.300337     -506.57156              0 
 17.6               17600   297.6262       297.49857     -707.29835      97.447564     -609.85078              0 
 17.7               17700   300.55866      300.35464     -577.17602      98.4077       -478.76832              0 
 17.8               17800   300.55121      300.31093     -675.35724      98.40526      -576.95198              0 
 17.9               17900   298.65128      298.52658     -539.26219      97.783192     -441.479                0 
 18                 18000   296.30389      296.26758     -347.68185      97.01462      -250.66723              0 
 18.1               18100   300.25702      300.1223      -667.11347      98.308935     -568.80454              0 
 18.2               18200   300.32015      300.23945     -730.90423      98.329607     -632.57462              0 
 18.3               18300   302.62365      302.36028     -466.78176      99.083809     -367.69795              0 
 18.4               18400   302.70401      302.65304     -323.75601      99.110121     -224.64589              0 
 18.5               18500   306.19335      306.08754     -546.16793      100.25259     -445.91535              0 
 18.6               18600   301.97326      301.85795     -469.95482      98.870862     -371.08395              0 
 18.7               18700   292.61648      292.55398     -617.12772      95.807303     -521.32042              0 
 18.8               18800   300.50334      300.47391     -433.61603      98.389585     -335.22645              0 
 18.9               18900   305.61237      305.51155     -328.02907      100.06236     -227.9667               0 
 19                 19000   303.31439      303.30793     -505.70596      99.309968     -406.396                0 
 19.1               19100   296.58501      296.54708     -377.24266      97.106662     -280.136                0 
 19.2               19200   301.95473      301.87037     -568.47478      98.864795     -469.60998              0 
 19.3               19300   300.0428       299.91464     -544.88177      98.238799     -446.64297              0 
 19.4               19400   303.71065      303.49589     -480.76589      99.43971      -381.32618              0 
 19.5               19500   301.45701      301.21791     -487.72308      98.701831     -389.02125              0 
 19.6               19600   302.23144      302.17211     -580.58676      98.955393     -481.63136              0 
 19.7               19700   300.80911      300.61173     -624.80664      98.489699     -526.31694              0 
 19.8               19800   302.52335      302.494       -564.4343       99.050968     -465.38333              0 
 19.9               19900   306.09476      305.75135     -417.01191      100.2203      -316.7916               0 
 20                 20000   302.90009      302.821       -593.71583      99.17432      -494.54151              0 
 20.1               20100   302.4754       302.42825     -476.95309      99.035268     -377.91782              0 
 20.2               20200   301.82192      301.79981     -517.08188      98.821309     -418.26057              0 
 20.3               20300   307.47712      307.335       -468.41769      100.67291     -367.74478              0 
 20.4               20400   296.86253      296.76088     -474.38689      97.197527     -377.18937              0 
 20.5               20500   288.51019      288.34149     -446.60905      94.462837     -352.14621              0 
 20.6               20600   303.96171      303.77489     -426.90128      99.521912     -327.37937              0 
 20.7               20700   311.52535      311.39668     -586.90112      101.99837     -484.90275              0 
 20.8               20800   303.26953      303.01047     -455.45787      99.295279     -356.16259              0 
 20.9               20900   309.52407      309.36823     -480.71375      101.34312     -379.37063              0 
 21                 21000   301.72935      301.50556     -460.71086      98.791        -361.91986              0 
 21.1               21100   297.91384      297.70483     -585.08254      97.541743     -487.54079              0 
 21.2               21200   303.01304      302.85519     -398.57292      99.211303     -299.36161              0 
 21.3               21300   303.15424      302.82817     -675.38994      99.257531     -576.13241              0 
 21.4               21400   303.74275      303.68875     -483.09082      99.450221     -383.6406               0 
 21.5               21500   291.99121      291.80555     -597.87638      95.602578     -502.2738               0 
 21.6               21600   295.52232      295.27043     -503.87955      96.758722     -407.12083              0 
 21.7               21700   308.64055      308.45616     -497.21633      101.05384     -396.16249              0 
 21.8               21800   309.98709      309.93548     -598.34077      101.49472     -496.84605              0 
 21.9               21900   302.50344      302.49046     -413.17508      99.044451     -314.13062              0 
 22                 22000   293.67203      293.67131     -485.68423      96.152907     -389.53133              0 
 22.1               22100   300.206        300.15807     -695.56608      98.292233     -597.27385              0 
 22.2               22200   297.87592      297.64509     -485.90359      97.529327     -388.37426              0 
 22.3               22300   298.45661      298.42438     -543.84602      97.719453     -446.12657              0 
 22.4               22400   301.31523      300.89947     -443.54482      98.655413     -344.8894               0 
 22.5               22500   296.16574      296.15718     -526.90861      96.969387     -429.93922              0 
 22.6               22600   297.45402      297.36613     -341.76374      97.391189     -244.37255              0 
 22.7               22700   301.53516      301.4241      -418.01369      98.72742      -319.28628              0 
 22.8               22800   307.45236      307.30108     -531.15444      100.6648      -430.48963              0 
 22.9               22900   303.85743      303.81267     -606.45211      99.487769     -506.96434              0 
 23                 23000   295.06522      294.95051     -592.24245      96.609058     -495.6334               0 
 23.1               23100   300.95474      300.88848     -597.7364       98.53738      -499.19902              0 
 23.2               23200   300.46183      300.31081     -420.97205      98.375994     -322.59605              0 
 23.3               23300   302.78595      302.5714      -656.92369      99.13695      -557.78674              0 
 23.4               23400   295.66145      295.60142     -515.45096      96.804275     -418.64669              0 
 23.5               23500   297.7385       297.69812     -694.68878      97.484332     -597.20445              0 
 23.6               23600   295.57011      295.43109     -468.99604      96.774367     -372.22167              0 
 23.7               23700   292.61942      292.54451     -535.00064      95.808264     -439.19238              0 
 23.8               23800   305.38834      305.24513     -472.06061      99.989014     -372.07159              0 
 23.9               23900   288.81552      288.77411     -570.5102       94.562808     -475.94739              0 
 24                 24000   288.50948      288.38485     -636.09598      94.462606     -541.63338              0 
 24.1               24100   301.58483      301.31488     -622.39051      98.743684     -523.64683              0 
 24.2               24200   294.50062      294.37233     -490.23609      96.4242       -393.81189              0 
 24.3               24300   293.75067      293.65335     -540.72326      96.178654     -444.5446               0 
 24.4               24400   298.73734      298.66682     -615.95479      97.811368     -518.14342              0 
 24.5               24500   301.87015      301.82679     -402.57933      98.837101     -303.74223              0 
 24.6               24600   299.77094      299.6734      -594.88261      98.149787     -496.73282              0 
 24.7               24700   307.63903      307.545       -586.33082      100.72592     -485.60489              0 
 24.8               24800   307.35474      307.2588      -600.95267      100.63284     -500.31983              0 
 24.9               24900   296.60831      296.3447      -608.26579      97.11429      -511.15151              0 
 25                 25000   310.69366      310.48948     -476.76022      101.72606     -375.03416              0 
 25.1               25100   303.71133      303.66661     -625.9142       99.439933     -526.47427              0 
 25.2               25200   297.4831       297.38107     -574.46979      97.400711     -477.06908              0 
 25.3               25300   300.2013       300.17259     -489.76714      98.290693     -391.47645              0 
 25.4               25400   303.66165      303.57541     -433.19635      99.423666     -333.77269              0 
 25.5               25500   298.23202      298.0719      -483.0788       97.645918     -385.43288              0 
 25.6               25600   298.3181       298.24523     -517.28018      97.674104     -419.60608              0 
 25.7               25700   300.61331      300.4929      -738.42021      98.425593     -639.99462              0 
 25.8               25800   295.69189      295.49325     -438.34798      96.81424      -341.53374              0 
 25.9               25900   288.93479      288.63694     -472.67994      94.60186      -378.07808              0 
 26                 26000   292.07983      292.0276      -525.591        95.631595     -429.9594               0 
 26.1               26100   300.61626      300.53156     -621.43163      98.426558     -523.00507              0 
 26.2               26200   302.71932      302.69831     -515.99187      99.115134     -416.87674              0 
 26.3               26300   298.96992      298.8212      -606.61254      97.887519     -508.72502              0 
 26.4               26400   292.59954      292.54973     -432.18998      95.801757     -336.38822              0 
 26.5               26500   290.13202      290.03256     -365.73519      94.993851     -270.74134              0 
 26.6               26600   291.76573      291.66822     -534.70489      95.528752     -439.17614              0 
 26.7               26700   288.78834      288.76158     -668.48502      94.553907     -573.93111              0 
 26.8               26800   295.95154      295.90065     -448.16084      96.899255     -351.26159              0 
 26.9               26900   302.99867      302.71486     -807.45442      99.206598     -708.24782              0 
 27                 27000   303.08924      303.05458     -597.90538      99.236251     -498.66913              0 
 27.1               27100   300.28896      300.27322     -451.34878      98.319395     -353.02939              0 
 27.2               27200   297.5082       297.47905     -492.90084      97.408929     -395.49191              0 
 27.3               27300   294.12309      293.97208     -657.90324      96.300591     -561.60265              0 
 27.4               27400   302.55811      302.49847     -607.14383      99.06235      -508.08149              0 
 27.5               27500   296.90392      296.77857     -613.11031      97.21108      -515.89923              0 
 27.6               27600   294.83831      294.76532     -458.54084      96.534765     -362.00608              0 
 27.7               27700   309.66624      309.46691     -528.77441      101.38966     -427.38474              0 
 27.8               27800   308.02467      307.9392      -564.29483      100.85219     -463.44264              0 
 27.9               27900   299.75954      299.74456     -394.32454      98.146053     -296.17848              0 
 28                 28000   297.8211       297.67566     -572.4946       97.511377     -474.98323              0 
 28.1               28100   303.28244      303.22401     -366.20955      99.299508     -266.91004              0 
 28.2               28200   296.43814      296.32064     -570.51417      97.058573     -473.45559              0 
 28.3               28300   293.27818      293.24925     -562.66452      96.023953     -466.64056              0 
 28.4               28400   292.37066      292.3583      -521.46177      95.726818     -425.73496              0 
 28.5               28500   296.02548      296.00034     -596.64802      96.923462     -499.72456              0 
 28.6               28600   303.36459      303.3218      -486.5783       99.326403     -387.2519               0 
 28.7               28700   312.83197      312.54527     -558.56794      102.42618     -456.14176              0 
 28.8               28800   313.73709      313.59611     -635.82878      102.72253     -533.10626              0 
 28.9               28900   296.43229      296.38759     -575.26416      97.05666      -478.2075               0 
 29                 29000   295.51166      295.36781     -645.04766      96.755231     -548.29243              0 
 29.1               29100   298.44777      298.17937     -637.95499      97.716558     -540.23844              0 
 29.2               29200   298.31232      298.24134     -508.27441      97.672211     -410.6022               0 
 29.3               29300   310.19605      310.06327     -493.93194      101.56313     -392.36881              0 
 29.4               29400   309.19628      309.16428     -522.50824      101.23579     -421.27245              0 
 29.5               29500   313.04251      312.53595     -611.69754      102.49511     -509.20243              0 
 29.6               29600   312.80154      312.72728     -544.55301      102.41621     -442.13679              0 
 29.7               29700   294.42056      294.38088     -611.30042      96.397987     -514.90243              0 
 29.8               29800   304.1114       303.90529     -341.11071      99.570922     -241.53979              0 
 29.9               29900   296.85837      296.81343     -486.77089      97.196165     -389.57473              0 
 30                 30000   298.91983      298.89529     -395.96866      97.871118     -298.09754              0 
 30.1               30100   301.03288      301.00976     -465.02467      98.562965     -366.46171              0 
 30.2               30200   293.99715      293.84387     -361.10353      96.259354     -264.84418              0 
 30.3               30300   295.67266      295.55921     -469.82885      96.807944     -373.02091              0 
 30.4               30400   299.60319      299.42785     -604.82571      98.094861     -506.73084              0 
 30.5               30500   302.22997      301.8381      -534.66629      98.954912     -435.71138              0 
 30.6               30600   298.93982      298.69872     -522.71422      97.877665     -424.83656              0 
 30.7               30700   306.44156      306.34598     -504.7543       100.33385     -404.42044              0 
 30.8               30800   301.60479      301.54142     -704.191        98.750217     -605.44079              0 
 30.9               30900   306.04161      305.91609     -466.77968      100.2029      -366.57678              0 
 31                 31000   295.97018      295.91701     -447.06631      96.905355     -350.16095              0 
 31.1               31100   303.61842      303.50757     -672.74987      99.409512     -573.34036              0 
 31.2               31200   307.80499      307.71888     -615.78778      100.78026     -515.00751              0 
 31.3               31300   301.64335      301.41349     -480.39611      98.762843     -381.63327              0 
 31.4               31400   312.25467      311.80195     -519.65078      102.23716     -417.41362              0 
 31.5               31500   299.73622      299.7237      -649.75493      98.138419     -551.61651              0 
 31.6               31600   300.80481      300.68485     -515.15095      98.488293     -416.66266              0 
 31.7               31700   299.24255      299.09764     -595.42195      97.976783     -497.44517              0 
 31.8               31800   296.10511      295.88924     -562.7548       96.949535     -465.80526              0 
 31.9               31900   301.62494      301.53977     -615.39059      98.756816     -516.63377              0 
 32                 32000   303.13808      303.1004      -381.68742      99.25224      -282.43518              0 
 32.1               32100   305.02574      304.86267     -673.52905      99.870291     -573.65876              0 
 32.2               32200   294.93572      294.814       -595.11263      96.566657     -498.54598              0 
 32.3               32300   298.84184      298.70943     -519.94345      97.845585     -422.09787              0 
 32.4               32400   301.19928      301.1573      -515.31507      98.617447     -416.69762              0 
 32.5               32500   304.95478      304.86555     -616.81704      99.847059     -516.96998              0 
 32.6               32600   301.6524       301.58284     -599.35307      98.765806     -500.58726              0 
 32.7               32700   297.77972      297.6429      -633.89345      97.497829     -536.39562              0 
 32.8               32800   308.19477      308.18997     -490.7897       100.90788     -389.88181              0 
 32.9               32900   297.64131      297.63208     -775.10133      97.452512     -677.64882              0 
 33                 33000   302.00042      301.98214     -646.71384      98.879755     -547.83408              0 
 33.1               33100   298.61008      298.56226     -676.96143      97.769701     -579.19173              0 
 33.2               33200   298.25684      298.1612      -594.40023      97.654046     -496.74619              0 
 33.3               33300   305.04088      305.00342     -662.5826       99.875249     -562.70735              0 
 33.4               33400   298.37078      298.34418     -521.46147      97.691351     -423.77012              0 
 33.5               33500   306.94257      306.91551     -610.54654      100.49789     -510.04864              0 
 33.6               33600   305.23403      304.89492     -570.76085      99.938488     -470.82236              0 
 33.7               33700   308.73852      308.71439     -602.05066      101.08592     -500.96475              0 
 33.8               33800   302.88076      302.75476     -627.56753      99.167992     -528.39954              0 
 33.9               33900   305.25147      305.22927     -589.70676      99.9442       -489.76256              0 
 34                 34000   306.20905      306.09453     -563.69639      100.25773     -463.43866              0 
 34.1               34100   298.3003       298.25935     -508.58983      97.668277     -410.92155              0 
 34.2               34200   301.58791      301.37998     -463.05821      98.74469      -364.31352              0 
 34.3               34300   303.76882      303.67907     -700.63595      99.458755     -601.1772               0 
 34.4               34400   299.84063      299.74876     -430.51012      98.172605     -332.33752              0 
 34.5               34500   296.15647      296.13655     -677.15607      96.96635      -580.18972              0 
 34.6               34600   294.49904      294.48193     -550.85973      96.423682     -454.43604              0 
 34.7               34700   297.98145      297.91046     -489.99344      97.56388      -392.42956              0 
 34.8               34800   301.87279      301.83863     -640.21054      98.837965     -541.37258              0 
 34.9               34900   295.966        295.90207     -477.10439      96.903988     -380.2004               0 
 35                 35000   307.04372      306.89923     -513.65504      100.53101     -413.12403              0 
 35.1               35100   295.09195      294.99755     -563.11383      96.617811     -466.49602              0 
 35.2               35200   297.73561      297.66908     -514.55504      97.483385     -417.07165              0 
 35.3               35300   302.14561      302.01736     -425.05563      98.927291     -326.12834              0 
 35.4               35400   298.18867      298.09164     -610.7344       97.631725     -513.10267              0 
 35.5               35500   300.7805       300.74277     -463.17913      98.480331     -364.6988               0 
 35.6               35600   294.30817      294.247       -542.85675      96.361187     -446.49557              0 
 35.7               35700   302.63033      302.56432     -618.15656      99.085996     -519.07056              0 
 35.8               35800   301.6793       301.4438      -719.10253      98.774612     -620.32791              0 
 35.9               35900   298.35922      298.16661     -476.96239      97.687567     -379.27483              0 
 36                 36000   301.90242      301.88318     -681.6944       98.847668     -582.84673              0 
 36.1               36100   306.58454      306.56356     -460.15411      100.38067     -359.77344              0 
 36.2               36200   298.43682      298.41363     -276.93378      97.712975     -179.2208               0 
 36.3               36300   297.54551      297.45546     -718.88866      97.421147     -621.46752              0 
 36.4               36400   294.69627      294.66595     -552.15176      96.488258     -455.6635               0 
 36.5               36500   305.3961       305.25508     -699.79305      99.991555     -599.80149              0 
 36.6               36600   299.53086      299.45341     -456.0639       98.071179     -357.99272              0 
 36.7               36700   298.17262      298.03674     -578.92768      97.626471     -481.30121              0 
 36.8               36800   300.04043      300.00839     -561.39229      98.238022     -463.15427              0 
 36.9               36900   300.58097      300.47051     -558.33938      98.415004     -459.92438              0 
 37                 37000   297.73618      297.70707     -558.89491      97.483573     -461.41134              0 
 37.1               37100   297.30641      297.2089      -579.63724      97.34286      -482.29438              0 
 37.2               37200   300.92038      300.79672     -574.43926      98.526133     -475.91313              0 
 37.3               37300   305.31982      305.27391     -471.97905      99.966577     -372.01248              0 
 37.4               37400   299.30584      299.21247     -659.87347      97.997505     -561.87596              0 
 37.5               37500   301.782        301.62774     -519.89538      98.808238     -421.08714              0 
 37.6               37600   304.7434       304.68066     -505.0414       99.777848     -405.26355              0 
 37.7               37700   299.32063      299.31147     -359.59971      98.002347     -261.59736              0 
 37.8               37800   301.21465      301.19474     -711.47453      98.62248      -612.85205              0 
 37.9               37900   300.61668      300.59225     -642.17719      98.426697     -543.75049              0 
 38                 38000   302.55104      302.46584     -659.5132       99.060036     -560.45317              0 
 38.1               38100   294.51048      294.31702     -532.28435      96.427428     -435.85692              0 
 38.2               38200   303.55733      303.40678     -527.47876      99.389511     -428.08925              0 
 38.3               38300   305.01852      304.8305      -555.15041      99.867927     -455.28248              0 
 38.4               38400   305.72644      305.66716     -419.33232      100.09971     -319.23261              0 
 38.5               38500   292.37882      292.34175     -574.44816      95.729489     -478.71867              0 
 38.6               38600   298.69501      298.52247     -520.83197      97.797511     -423.03446              0 
 38.7               38700   307.22709      307.11994     -475.38397      100.59105     -374.79292              0 
 38.8               38800   307.21316      307.18585     -556.97708      100.58649     -456.39059              0 
 38.9               38900   300.75797      300.60676     -469.68263      98.472955     -371.20967              0 
 39                 39000   296.42627      296.23696     -663.13633      97.054688     -566.08164              0 
 39.1               39100   304.0753       304.025       -715.94989      99.559104     -616.39079              0 
 39.2               39200   308.01881      307.70245     -559.44115      100.85027     -458.59088              0 
 39.3               39300   294.00622      293.91033     -552.59377      96.262324     -456.33144              0 
 39.4               39400   298.80331      298.65315     -636.75701      97.832967     -538.92405              0 
 39.5               39500   298.97029      298.85189     -585.06864      97.887642     -487.18099              0 
 39.6               39600   300.84326      300.75449     -552.85371      98.500883     -454.35283              0 
 39.7               39700   299.17953      299.02871     -573.42609      97.95615      -475.46994              0 
 39.8               39800   298.13325      297.96154     -612.87141      97.613579     -515.25783              0 
 39.9               39900   297.70382      297.6713      -741.45398      97.472977     -643.98101              0 
 40                 40000   308.02203      307.95869     -523.07373      100.85133     -422.2224               0 
 40.1               40100   293.07225      292.98968     -558.9945       95.95653      -463.03797              0 
 40.2               40200   295.40584      295.31451     -460.94276      96.720583     -364.22217              0 
 40.3               40300   297.13684      296.98597     -692.54575      97.287339     -595.25841              0 
 40.4               40400   297.08327      296.97353     -670.60343      97.269799     -573.33363              0 
 40.5               40500   293.09446      292.8909      -549.43389      95.963802     -453.47009              0 
 40.6               40600   294.78743      294.56773     -570.20485      96.518104     -473.68675              0 
 40.7               40700   296.69608      296.68947     -475.39298      97.143028     -378.24995              0 
 40.8               40800   292.56359      292.48998     -646.34105      95.789985     -550.55106              0 
 40.9               40900   293.11726      292.98051     -580.57452      95.971267     -484.60325              0 
 41                 41000   300.42154      300.36711     -521.83555      98.362803     -423.47275              0 
 41.1               41100   298.55874      298.42773     -472.28072      97.752892     -374.52782              0 
 41.2               41200   302.30614      302.06695     -557.74971      98.97985      -458.76986              0 
 41.3               41300   301.55676      301.45756     -359.07489      98.734492     -260.3404               0 
 41.4               41400   300.10989      299.95578     -598.2383       98.260764     -499.97753              0 
 41.5               41500   297.3156       297.2652      -695.51839      97.34587      -598.17252              0 
 41.6               41600   309.11552      309.05937     -371.01717      101.20935     -269.80782              0 
 41.7               41700   308.93523      308.82953     -567.77902      101.15032     -466.6287               0 
 41.8               41800   302.98935      302.94078     -587.74943      99.203546     -488.54588              0 
 41.9               41900   304.44926      304.29353     -444.04418      99.681544     -344.36263              0 
 42                 42000   298.8702       298.85162     -529.90051      97.85487      -432.04564              0 
 42.1               42100   295.84126      295.82618     -450.32092      96.863146     -353.45777              0 
 42.2               42200   299.26617      299.23064     -573.83699      97.984516     -475.85247              0 
 42.3               42300   302.95531      302.59412     -351.39963      99.192401     -252.20723              0 
 42.4               42400   301.42216      301.1945      -716.194        98.690421     -617.50358              0 
 42.5               42500   304.03166      304.01543     -470.63048      99.544815     -371.08566              0 
 42.6               42600   286.85574      286.81705     -736.84492      93.921143     -642.92377              0 
 42.7               42700   298.74966      298.67574     -562.41168      97.815402     -464.59627              0 
 42.8               42800   304.45284      304.25433     -530.82271      99.682717     -431.13999              0 
 42.9               42900   300.37247      300.09707     -590.09852      98.346736     -491.75178              0 
 43                 43000   303.02714      302.96026     -537.14591      99.215918     -437.92999              0 
 43.1               43100   302.71473      302.61013     -556.72503      99.113629     -457.6114               0 
 43.2               43200   300.05042      299.92181     -654.69331      98.241294     -556.45202              0 
 43.3               43300   298.68421      298.43077     -566.40698      97.793972     -468.61301              0 
 43.4               43400   305.70848      305.62353     -376.97692      100.09383     -276.88309              0 
 43.5               43500   299.60852      299.56386     -664.70318      98.096608     -566.60657              0 
 43.6               43600   301.10231      300.99838     -468.37107      98.585699     -369.78537              0 
 43.7               43700   297.00916      296.65976     -509.71451      97.245537     -412.46897              0 
 43.8               43800   294.98153      294.90994     -560.67474      96.581657     -464.09308              0 
 43.9               43900   289.07257      288.82053     -551.07885      94.646968     -456.43189              0 
 44                 44000   292.05386      291.33653     -522.01415      95.62309      -426.39106              0 
 44.1               44100   301.01513      300.93595     -620.40073      98.557152     -521.84358              0 
 44.2               44200   300.91611      300.7987      -552.21456      98.524732     -453.68982              0 
 44.3               44300   304.61255      304.54322     -610.35841      99.735007     -510.62341              0 
 44.4               44400   300.375        300.25448     -587.82165      98.347566     -489.47409              0 
 44.5               44500   305.49752      305.38812     -492.66067      100.02476     -392.63591              0 
 44.6               44600   300.12054      299.76489     -493.01165      98.264252     -394.74739              0 
 44.7               44700   294.81813      294.77417     -444.14557      96.528158     -347.61741              0 
 44.8               44800   295.81856      295.73424     -578.31272      96.855716     -481.45701              0 
 44.9               44900   290.34943      290.33819     -615.26622      95.065034     -520.20119              0 
 45                 45000   295.96787      295.7874      -519.99168      96.904601     -423.08708              0 
 45.1               45100   296.17657      295.99519     -673.64504      96.972931     -576.67211              0 
 45.2               45200   303.42898      303.31778     -611.20639      99.347486     -511.8589               0 
 45.3               45300   302.40525      302.16206     -615.69914      99.012302     -516.68683              0 
 45.4               45400   306.18919      306.15142     -684.77084      100.25122     -584.51961              0 
 45.5               45500   295.40438      295.06472     -407.36544      96.720106     -310.64533              0 
 45.6               45600   295.63758      295.4302      -588.92383      96.796457     -492.12737              0 
 45.7               45700   300.18923      300.09481     -614.7273       98.286741     -516.44056              0 
 45.8               45800   305.55316      305.42538     -467.5082       100.04298     -367.46523              0 
 45.9               45900   301.64977      301.47886     -427.59339      98.764945     -328.82845              0 
 46                 46000   300.04635      299.88685     -556.35997      98.23996      -458.12001              0 
 46.1               46100   301.11505      300.80909     -675.32036      98.58987      -576.73049              0 
 46.2               46200   295.56531      295.51806     -572.92794      96.772797     -476.15515              0 
 46.3               46300   303.65842      303.44866     -387.47288      99.422608     -288.05027              0 
 46.4               46400   308.66566      308.37938     -554.78188      101.06206     -453.71982              0 
 46.5               46500   304.52561      304.29876     -671.86439      99.706541     -572.15785              0 
 46.6               46600   291.27731      291.106       -697.95086      95.368837     -602.58202              0 
 46.7               46700   298.53435      298.39623     -508.73725      97.744907     -410.99235              0 
 46.8               46800   294.4232       294.34599     -434.42456      96.39885      -338.02571              0 
 46.9               46900   303.57507      303.56548     -444.53397      99.395319     -345.13865              0 
 47                 47000   291.66999      291.59565     -574.43654      95.497407     -478.93913              0 
 47.1               47100   299.56155      299.42515     -532.96512      98.081228     -434.8839               0 
 47.2               47200   301.77105      301.72492     -577.06773      98.804653     -478.26308              0 
 47.3               47300   302.52724      302.45818     -515.41312      99.052244     -416.36087              0 
 47.4               47400   307.19801      307.05199     -514.08482      100.58153     -413.50329              0 
 47.5               47500   311.86439      311.69728     -570.18336      102.10938     -468.07398              0 
 47.6               47600   295.91561      295.78967     -473.93417      96.88749      -377.04668              0 
 47.7               47700   297.2083       296.93654     -517.44108      97.310737     -420.13034              0 
 47.8               47800   300.19755      300.11469     -567.85964      98.289466     -469.57017              0 
 47.9               47900   300.23106      300.22255     -482.75016      98.300436     -384.44972              0 
 48                 48000   298.00235      297.84121     -677.87358      97.570721     -580.30286              0 
 48.1               48100   291.37747      291.33798     -562.4812       95.40163      -467.07957              0 
 48.2               48200   297.34477      297.30439     -526.35628      97.355419     -429.00086              0 
 48.3               48300   289.83647      289.77308     -572.98134      94.897082     -478.08425              0 
 48.4               48400   299.69535      299.62747     -575.17051      98.125036     -477.04547              0 
 48.5               48500   290.25919      290.08757     -693.22372      95.035487     -598.18823              0 
 48.6               48600   296.60941      296.47078     -455.17555      97.114652     -358.0609               0 
 48.7               48700   311.1293       311.12125     -627.51102      101.8687      -525.64232              0 
 48.8               48800   309.80215      309.7866      -497.7855       101.43416     -396.35134              0 
 48.9               48900   300.83277      300.64992     -619.16058      98.497445     -520.66314              0 
 49                 49000   304.98159      304.8017      -604.2423       99.855838     -504.38646              0 
 49.1               49100   294.05428      293.97655     -315.8627       96.278062     -219.58464              0 
 49.2               49200   300.06768      299.9606      -669.02414      98.246943     -570.7772               0 
 49.3               49300   296.28267      296.0922      -572.69701      97.007672     -475.68934              0 
 49.4               49400   292.98927      292.95439     -533.68188      95.929361     -437.75251              0 
 49.5               49500   293.37579      293.36275     -631.83054      96.055911     -535.77462              0 
 49.6               49600   290.67699      290.65086     -634.30535      95.17228      -539.13307              0 
 49.7               49700   283.63981      283.57173     -608.18517      92.868198     -515.31697              0 
 49.8               49800   301.13823      301.03451     -578.50339      98.597458     -479.90593              0 
 49.9               49900   298.00171      297.97992     -463.15119      97.570512     -365.58068              0 
 50                 50000   297.66016      297.4904      -541.86199      97.458682     -444.40331              0 
 50.1               50100   298.03971      297.87779     -490.693        97.582955     -393.11005              0 
 50.2               50200   298.79409      298.62379     -562.9126       97.829952     -465.08265              0 
 50.3               50300   302.19337      301.99698     -558.43706      98.942928     -459.49413              0 
 50.4               50400   297.71438      297.54323     -454.01988      97.476437     -356.54344              0 
 50.5               50500   303.30403      303.20819     -607.17235      99.306575     -507.86577              0 
 50.6               50600   297.32499      297.20373     -357.8267       97.348943     -260.47775              0 
 50.7               50700   297.63674      297.49674     -602.23957      97.451016     -504.78856              0 
 50.8               50800   307.55728      307.3941      -573.5916       100.69916     -472.89245              0 
 50.9               50900   293.68914      293.63891     -526.15086      96.158509     -429.99235              0 
 51                 51000   299.1217       299.04448     -480.85587      97.937213     -382.91866              0 
 51.1               51100   307.2869       307.26019     -653.503        100.61063     -552.89237              0 
 51.2               51200   295.35037      295.18288     -588.54305      96.70242      -491.84063              0 
 51.3               51300   292.68503      292.4027      -518.40849      95.829748     -422.57874              0 
 51.4               51400   295.24395      295.09077     -571.56204      96.667578     -474.89446              0 
 51.5               51500   301.06525      300.96056     -415.3117       98.573565     -316.73814              0 
 51.6               51600   296.82015      296.65442     -803.60188      97.183652     -706.41823              0 
 51.7               51700   307.88251      307.73474     -706.74155      100.80564     -605.93591              0 
 51.8               51800   308.17963      308.0326      -430.06873      100.90293     -329.1658               0 
 51.9               51900   302.03125      302.01315     -558.28511      98.889848     -459.39526              0 
 52                 52000   300.9263       300.61451     -502.95181      98.528069     -404.42374              0 
 52.1               52100   306.20935      306.06821     -731.37379      100.25782     -631.11597              0 
 52.2               52200   302.17309      302.1508      -423.5541       98.936288     -324.61781              0 
 52.3               52300   292.37911      292.20492     -587.70517      95.729583     -491.97559              0 
 52.4               52400   295.55703      295.38195     -609.63701      96.770086     -512.86693              0 
 52.5               52500   291.18023      291.17052     -567.44262      95.337052     -472.10557              0 
 52.6               52600   297.33317      297.25211     -599.8592       97.351623     -502.50758              0 
 52.7               52700   298.33877      298.21687     -491.12576      97.68087      -393.44489              0 
 52.8               52800   301.31155      301.14174     -450.28842      98.654207     -351.63422              0 
 52.9               52900   299.00737      298.89498     -597.48223      97.899782     -499.58244              0 
 53                 53000   303.73858      303.71272     -493.48134      99.448856     -394.03248              0 
 53.1               53100   301.9219       301.82752     -567.48383      98.854044     -468.62979              0 
 53.2               53200   295.86823      295.81984     -420.09874      96.871977     -323.22676              0 
 53.3               53300   290.8004       290.52002     -581.79239      95.212689     -486.5797               0 
 53.4               53400   304.62766      304.51442     -507.42869      99.739954     -407.68874              0 
 53.5               53500   298.72059      298.57876     -516.75249      97.805884     -418.9466               0 
 53.6               53600   295.13789      294.93222     -633.59495      96.632851     -536.96209              0 
 53.7               53700   299.53832      299.39296     -613.11733      98.073621     -515.04371              0 
 53.8               53800   295.66443      295.52368     -542.44495      96.805249     -445.6397               0 
 53.9               53900   295.61325      295.56311     -457.11353      96.788492     -360.32503              0 
 54                 54000   294.61092      294.5349      -476.1595       96.460312     -379.69919              0 
 54.1               54100   298.76609      298.53118     -726.75904      97.820782     -628.93826              0 
 54.2               54200   297.90276      297.54002     -533.90415      97.538114     -436.36604              0 
 54.3               54300   294.09955      293.99268     -369.10637      96.292884     -272.81348              0 
 54.4               54400   304.57346      304.44937     -580.61022      99.722207     -480.88802              0 
 54.5               54500   312.82737      312.73519     -575.83561      102.42467     -473.41095              0 
 54.6               54600   296.40737      296.38984     -668.84203      97.048501     -571.79353              0 
 54.7               54700   296.49439      296.41833     -500.90446      97.076991     -403.82747              0 
 54.8               54800   304.3097       304.28175     -667.8113       99.63585      -568.17545              0 
 54.9               54900   304.76096      304.73022     -591.53753      99.783597     -491.75393              0 
 55                 55000   307.71639      307.55983     -656.76962      100.75125     -556.01837              0 
 55.1               55100   298.10975      297.96973     -526.36681      97.605885     -428.76093              0 
 55.2               55200   300.12045      299.98863     -566.9824       98.264223     -468.71818              0 
 55.3               55300   302.60101      302.59258     -739.01992      99.076397     -639.94353              0 
 55.4               55400   299.62806      299.57024     -684.00976      98.103004     -585.90675              0 
 55.5               55500   303.76817      303.71336     -534.95811      99.458544     -435.49956              0 
 55.6               55600   300.9257       300.88391     -584.28834      98.527873     -485.76047              0 
 55.7               55700   304.64947      304.52293     -371.23528      99.747094     -271.48819              0 
 55.8               55800   298.7165       298.55179     -534.19015      97.804544     -436.3856               0 
 55.9               55900   303.95986      303.86389     -669.12579      99.521306     -569.60449              0 
 56                 56000   301.52337      301.34        -476.14397      98.723561     -377.42041              0 
 56.1               56100   302.08881      301.87516     -725.79078      98.908694     -626.88208              0 
 56.2               56200   300.54401      300.51333     -643.1665       98.402902     -544.7636               0 
 56.3               56300   306.11172      305.94885     -627.84593      100.22586     -527.62007              0 
 56.4               56400   297.25777      297.08704     -590.68673      97.326935     -493.3598               0 
 56.5               56500   304.79891      304.66105     -578.55369      99.796024     -478.75766              0 
 56.6               56600   301.18163      301.01595     -501.70386      98.611668     -403.09219              0 
 56.7               56700   299.29297      299.29235     -476.54067      97.993293     -378.54738              0 
 56.8               56800   302.08062      302.04679     -616.87966      98.906011     -517.97365              0 
 56.9               56900   298.04269      297.92561     -747.91782      97.58393      -650.33388              0 
 57                 57000   308.08131      308.0384      -524.60312      100.87073     -423.73239              0 
 57.1               57100   304.7282       304.36759     -759.12528      99.772873     -659.35241              0 
 57.2               57200   304.12237      304.06907     -473.48409      99.574512     -373.90958              0 
 57.3               57300   303.0595       302.95266     -574.40073      99.226513     -475.17422              0 
 57.4               57400   299.36016      299.08756     -441.72256      98.015289     -343.70727              0 
 57.5               57500   304.25403      304.14602     -590.96805      99.617622     -491.35043              0 
 57.6               57600   302.09964      302.01099     -624.95628      98.912239     -526.04404              0 
 57.7               57700   303.748        303.74115     -456.03061      99.451939     -356.57867              0 
 57.8               57800   294.33608      294.28741     -425.86912      96.370327     -329.4988               0 
 57.9               57900   295.74651      295.61394     -408.36196      96.832124     -311.52984              0 
 58                 58000   298.45877      298.37061     -529.77368      97.72016      -432.05352              0 
 58.1               58100   295.38861      295.27881     -558.75796      96.714942     -462.04302              0 
 58.2               58200   296.06196      295.82173     -314.52047      96.935406     -217.58506              0 
 58.3               58300   296.77799      296.71112     -733.81793      97.169848     -636.64808              0 
 58.4               58400   305.08027      305.05767     -529.51003      99.888145     -429.62188              0 
 58.5               58500   298.4574       298.40139     -589.26937      97.719713     -491.54966              0 
 58.6               58600   305.76128      305.74455     -414.87946      100.11112     -314.76834              0 
 58.7               58700   305.27409      305.09649     -741.38966      99.951606     -641.43805              0 
 58.8               58800   297.45803      297.2128      -540.68684      97.392503     -443.29434              0 
 58.9               58900   302.07149      301.93738     -480.46401      98.903022     -381.56099              0 
 59                 59000   299.62131      299.41822     -479.01435      98.100796     -380.91356              0 
 59.1               59100   299.97084      299.56143     -383.57967      98.215236     -285.36443              0 
 59.2               59200   293.54417      293.47522     -493.76402      96.111043     -397.65298              0 
 59.3               59300   301.35039      301.31238     -576.67777      98.666925     -478.01084              0 
 59.4               59400   306.54817      306.5065      -527.02036      100.36876     -426.6516               0 
 59.5               59500   292.5089       292.48618     -629.5225       95.772079     -533.75042              0 
 59.6               59600   304.89727      304.87482     -594.32266      99.828228     -494.49444              0 
 59.7               59700   296.50838      296.42593     -602.02842      97.081571     -504.94685              0 
 59.8               59800   299.74702      299.70011     -403.67373      98.141954     -305.53178              0 
 59.9               59900   293.83764      293.74444     -617.69188      96.207131     -521.48475              0 
 60                 60000   300.40598      300.3382      -526.90961      98.357708     -428.5519               0 
 60.1               60100   296.94728      296.88509     -356.96677      97.225274     -259.7415               0 
 60.2               60200   299.16263      299.0063      -540.02641      97.950617     -442.07579              0 
 60.3               60300   304.01893      303.98087     -333.18686      99.540647     -233.64622              0 
 60.4               60400   297.86598      297.7432      -700.59732      97.526072     -603.07125              0 
 60.5               60500   305.63514      305.46693     -461.76459      100.06982     -361.69477              0 
 60.6               60600   299.20232      299.16007     -484.30451      97.963612     -386.3409               0 
 60.7               60700   303.46717      303.44525     -383.74436      99.35999      -284.38437              0 
 60.8               60800   302.652        302.55094     -542.03528      99.093093     -442.94219              0 
 60.9               60900   289.084        289.06183     -485.3334       94.650712     -390.68269              0 
 61                 61000   293.97469      293.8424      -536.75629      96.252003     -440.50428              0 
 61.1               61100   303.03267      303.02207     -637.88301      99.21773      -538.66528              0 
 61.2               61200   300.06554      300.03811     -533.92954      98.246243     -435.68329              0 
 61.3               61300   298.65017      298.47063     -460.44539      97.782829     -362.66256              0 
 61.4               61400   292.33073      292.03963     -469.59909      95.713744     -373.88535              0 
 61.5               61500   292.94667      292.87277     -547.6956       95.91541      -451.78019              0 
 61.6               61600   315.4965       315.49481     -441.89859      103.29859     -338.60001              0 
 61.7               61700   309.29607      309.17315     -698.69456      101.26847     -597.4261               0 
 61.8               61800   298.79413      298.5857      -651.89643      97.829963     -554.06647              0 
 61.9               61900   307.88757      307.78819     -333.84373      100.8073      -233.03643              0 
 62                 62000   295.91431      295.81639     -574.85348      96.887064     -477.96641              0 
 62.1               62100   306.21658      306.12788     -423.98971      100.26019     -323.72952              0 
 62.2               62200   297.08257      296.88137     -569.7358       97.269571     -472.46623              0 
 62.3               62300   298.7084       298.51384     -428.72251      97.801894     -330.92062              0 
 62.4               62400   298.52539      298.39336     -605.16328      97.741975     -507.42131              0 
 62.5               62500   295.66471      295.55849     -541.70411      96.805341     -444.89877              0 
 62.6               62600   301.24108      301.13801     -551.98056      98.631134     -453.34943              0 
 62.7               62700   296.61288      296.58587     -444.09229      97.115787     -346.97651              0 
 62.8               62800   295.93191      295.91476     -462.32095      96.892826     -365.42812              0 
 62.9               62900   311.1124       311.01117     -736.81223      101.86316     -634.94907              0 
 63                 63000   293.50652      293.46732     -623.29962      96.098715     -527.2009               0 
 63.1               63100   297.9674       297.86771     -640.77583      97.559278     -543.21655              0 
 63.2               63200   299.25907      299.13442     -353.44625      97.982193     -255.46406              0 
 63.3               63300   302.41192      302.36676     -649.71985      99.014484     -550.70536              0 
 63.4               63400   299.39791      299.34862     -470.82351      98.027652     -372.79586              0 
 63.5               63500   294.59195      294.58053     -432.03881      96.454104     -335.5847               0 
 63.6               63600   300.71919      300.58508     -459.62714      98.460258     -361.16688              0 
 63.7               63700   299.70083      299.65577     -472.51338      98.126833     -374.38655              0 
 63.8               63800   299.07867      299.0003      -376.70057      97.923126     -278.77745              0 
 63.9               63900   302.03902      301.76015     -554.36902      98.89239      -455.47663              0 
 64                 64000   294.33291      294.13618     -493.1357       96.369288     -396.76641              0 
 64.1               64100   297.18768      297.14156     -511.16875      97.303986     -413.86476              0 
 64.2               64200   300.66605      300.59638     -550.14294      98.442858     -451.70008              0 
 64.3               64300   291.80209      291.70795     -520.923        95.540658     -425.38234              0 
 64.4               64400   292.84045      292.77955     -503.60818      95.880634     -407.72755              0 
 64.5               64500   290.25917      289.95395     -560.25501      95.035482     -465.21953              0 
 64.6               64600   299.86532      299.86073     -449.64655      98.180687     -351.46587              0 
 64.7               64700   302.33731      302.22425     -433.7119       98.990058     -334.72184              0 
 64.8               64800   297.63705      297.24896     -603.60704      97.451118     -506.15593              0 
 64.9               64900   303.48897      303.2891      -681.9954       99.367128     -582.62827              0 
 65                 65000   299.07791      298.97049     -551.1666       97.922876     -453.24373              0 
 65.1               65100   296.98019      296.795       -688.08846      97.236051     -590.85241              0 
 65.2               65200   302.75786      302.651       -522.15423      99.12775      -423.02648              0 
 65.3               65300   302.45078      302.28108     -682.61797      99.027208     -583.59076              0 
 65.4               65400   303.94049      303.82783     -454.09244      99.514962     -354.57748              0 
 65.5               65500   304.47591      304.47032     -442.23083      99.690269     -342.54056              0 
 65.6               65600   307.83873      307.76009     -360.61205      100.79131     -259.82074              0 
 65.7               65700   302.4304       302.252       -619.17842      99.020537     -520.15788              0 
 65.8               65800   310.06727      309.92532     -397.29623      101.52097     -295.77526              0 
 65.9               65900   306.96629      306.88952     -489.27693      100.50566     -388.77127              0 
 66                 66000   303.30737      303.25433     -501.65226      99.307669     -402.34459              0 
 66.1               66100   304.05419      304.0315      -556.45182      99.552191     -456.89963              0 
 66.2               66200   304.34695      304.28396     -432.75735      99.648045     -333.10931              0 
 66.3               66300   305.49335      305.30925     -663.04845      100.02339     -563.02506              0 
 66.4               66400   296.45696      296.3931      -350.88315      97.064736     -253.81841              0 
 66.5               66500   297.76335      297.73354     -754.82877      97.49247      -657.3363               0 
 66.6               66600   305.79849      305.70494     -562.16592      100.1233      -462.04262              0 
 66.7               66700   297.43022      297.19152     -410.62964      97.383396     -313.24625              0 
[...]
 927.8             927800   303.25271      303.2339      -465.89864      99.289773     -366.60887              0 
 927.9             927900   301.95973      301.78331     -515.54405      98.866432     -416.67762              0 
 928               928000   297.16754      297.10492     -508.35281      97.297391     -411.05542              0 
 928.1             928100   292.86893      292.66136     -410.8387       95.889957     -314.94875              0 
 928.2             928200   296.49933      296.30929     -603.14022      97.078609     -506.06161              0 
 928.3             928300   308.15969      307.98021     -655.60109      100.8964      -554.70469              0 
 928.4             928400   297.29409      297.25825     -610.9265       97.338826     -513.58768              0 
 928.5             928500   298.50402      298.21203     -519.86933      97.734977     -422.13435              0 
 928.6             928600   306.4859       306.40887     -685.83113      100.34837     -585.48276              0 
 928.7             928700   307.51026      307.25796     -651.61661      100.68376     -550.93284              0 
 928.8             928800   303.30383      303.26648     -596.1914       99.306512     -496.88489              0 
 928.9             928900   303.381        303.30045     -615.68308      99.331777     -516.3513               0 
 929               929000   305.26389      305.17162     -527.64427      99.948266     -427.69601              0 
 929.1             929100   300.80187      300.75052     -669.7957       98.487328     -571.30838              0 
 929.2             929200   303.06242      303.03319     -556.23936      99.227469     -457.01189              0 
 929.3             929300   303.37254      303.16603     -528.2903       99.329008     -428.9613               0 
 929.4             929400   304.65161      304.50222     -547.7247       99.747796     -447.9769               0 
 929.5             929500   303.41626      303.3407      -703.4287       99.343321     -604.08538              0 
 929.6             929600   298.27118      298.23284     -568.07774      97.658741     -470.419                0 
 929.7             929700   291.46255      291.22551     -675.99528      95.429486     -580.5658               0 
 929.8             929800   290.09771      289.90155     -521.84037      94.982617     -426.85775              0 
 929.9             929900   300.25674      300.23402     -601.98942      98.308844     -503.68057              0 
 930               930000   296.82751      296.80246     -670.22277      97.18606      -573.03671              0 
 930.1             930100   301.90392      301.78383     -565.20355      98.848159     -466.35539              0 
 930.2             930200   297.55222      297.4009      -625.65873      97.423341     -528.23539              0 
 930.3             930300   302.33326      302.2247      -574.20417      98.98873      -475.21544              0 
 930.4             930400   297.3749       297.25873     -681.70562      97.365284     -584.34033              0 
 930.5             930500   305.77883      305.58774     -504.94695      100.11686     -404.83009              0 
 930.6             930600   296.8704       296.67404     -619.11714      97.200102     -521.91704              0 
 930.7             930700   288.00516      287.86787     -608.12335      94.297482     -513.82587              0 
 930.8             930800   296.09354      296.00941     -634.70448      96.945747     -537.75873              0 
 930.9             930900   298.50657      298.44974     -528.09937      97.73581      -430.36356              0 
 931               931000   299.83628      299.77008     -682.79987      98.171181     -584.62869              0 
 931.1             931100   301.63802      301.59177     -348.26726      98.761099     -249.50617              0 
 931.2             931200   299.39879      299.32075     -506.60663      98.027938     -408.5787               0 
 931.3             931300   301.37137      301.27471     -593.62665      98.673793     -494.95285              0 
 931.4             931400   294.86843      294.83827     -472.86462      96.544625     -376.31999              0 
 931.5             931500   303.99146      303.73013     -499.07431      99.53165      -399.54266              0 
 931.6             931600   294.37452      294.20635     -568.15161      96.382912     -471.7687               0 
 931.7             931700   289.77194      289.70558     -599.65309      94.875956     -504.77713              0 
 931.8             931800   302.44335      302.35975     -664.54763      99.024777     -565.52286              0 
 931.9             931900   302.32116      302.28954     -598.23266      98.984768     -499.24789              0 
 932               932000   305.15214      305.07173     -518.27789      99.911677     -418.36621              0 
 932.1             932100   301.78098      301.76972     -559.48396      98.807904     -460.67606              0 
 932.2             932200   298.33378      298.24356     -683.97043      97.679236     -586.29119              0 
 932.3             932300   292.49826      292.40443     -591.94191      95.768596     -496.17331              0 
 932.4             932400   300.014        299.94313     -420.48688      98.229367     -322.25751              0 
 932.5             932500   299.46672      299.3982      -598.51571      98.050181     -500.46553              0 
 932.6             932600   302.16439      302.01788     -400.33352      98.93344      -301.40008              0 
 932.7             932700   303.06884      303.04833     -621.54378      99.229572     -522.3142               0 
 932.8             932800   301.84825      301.73206     -532.43163      98.82993      -433.6017               0 
 932.9             932900   302.74332      302.67342     -472.28828      99.122989     -373.16529              0 
 933               933000   298.83194      298.78588     -589.76899      97.842343     -491.92665              0 
 933.1             933100   295.14986      295.04624     -558.89331      96.636771     -462.25654              0 
 933.2             933200   295.83846      295.77064     -655.66297      96.862228     -558.80074              0 
 933.3             933300   298.1631       298.0337      -387.14812      97.623354     -289.52476              0 
 933.4             933400   300.80273      300.7256      -539.0742       98.487611     -440.58659              0 
 933.5             933500   295.72543      295.50589     -642.51436      96.825221     -545.68914              0 
 933.6             933600   292.89282      292.76294     -517.024        95.897781     -421.12622              0 
 933.7             933700   303.9806       303.88379     -627.01663      99.528097     -527.48853              0 
 933.8             933800   304.55543      304.5478      -389.29618      99.716304     -289.57988              0 
 933.9             933900   307.57794      307.47216     -684.15596      100.70592     -583.45003              0 
 934               934000   299.59235      299.38031     -376.17693      98.091313     -278.08562              0 
 934.1             934100   301.52892      301.45495     -523.62414      98.725377     -424.89877              0 
 934.2             934200   300.12206      300.10225     -719.56636      98.264749     -621.30161              0 
 934.3             934300   309.28047      309.12456     -532.49614      101.26336     -431.23278              0 
 934.4             934400   306.92599      306.85778     -467.72651      100.49247     -367.23404              0 
 934.5             934500   304.02926      304.01273     -468.75309      99.54403      -369.20906              0 
 934.6             934600   311.06777      310.99583     -602.59783      101.84855     -500.74928              0 
 934.7             934700   299.7229       299.65331     -626.05963      98.134058     -527.92557              0 
 934.8             934800   293.66523      293.50751     -693.66111      96.150679     -597.51043              0 
 934.9             934900   301.73879      301.63114     -426.28825      98.794092     -327.49416              0 
 935               935000   304.3067       304.12471     -599.73935      99.634866     -500.10448              0 
 935.1             935100   307.76761      307.6817      -449.29598      100.76802     -348.52795              0 
 935.2             935200   295.9565       295.88174     -614.87786      96.900878     -517.97698              0 
 935.3             935300   304.63185      304.41302     -465.58813      99.741325     -365.8468               0 
 935.4             935400   298.32614      298.23541     -517.2634       97.676737     -419.58666              0 
 935.5             935500   298.26559      298.22858     -419.14642      97.656911     -321.48951              0 
 935.6             935600   293.92653      293.92175     -573.09168      96.236232     -476.85545              0 
 935.7             935700   296.37378      296.24959     -479.69553      97.037501     -382.65803              0 
 935.8             935800   301.48746      301.44374     -450.72485      98.711803     -352.01304              0 
 935.9             935900   306.84489      306.74126     -695.50052      100.46591     -595.03461              0 
 936               936000   302.86398      302.66404     -455.92198      99.162496     -356.75948              0 
 936.1             936100   294.92465      294.888       -546.44575      96.563032     -449.88272              0 
 936.2             936200   296.31303      296.28002     -584.86625      97.017612     -487.84864              0 
 936.3             936300   298.98816      298.84953     -627.70609      97.893492     -529.8126               0 
 936.4             936400   304.29154      304.22795     -585.53995      99.629903     -485.91005              0 
 936.5             936500   304.79868      304.66177     -551.52114      99.795949     -451.72519              0 
 936.6             936600   294.37178      294.32043     -668.41631      96.382014     -572.0343               0 
 936.7             936700   297.76711      297.74689     -595.34812      97.4937       -497.85442              0 
 936.8             936800   308.40789      308.3491      -565.3209       100.97766     -464.34324              0 
 936.9             936900   288.66934      288.5675      -558.08379      94.514946     -463.56884              0 
 937               937000   300.04313      300.02709     -471.55116      98.238906     -373.31226              0 
 937.1             937100   299.15287      299.07172     -558.02777      97.947419     -460.08035              0 
 937.2             937200   299.30883      299.0915      -599.77933      97.998485     -501.78085              0 
 937.3             937300   301.97188      301.85677     -502.8063       98.870408     -403.93589              0 
 937.4             937400   307.44948      306.82611     -566.30745      100.66386     -465.64359              0 
 937.5             937500   302.34407      302.27441     -573.39742      98.99227      -474.40515              0 
 937.6             937600   297.11988      297.10636     -683.6102       97.281788     -586.32841              0 
 937.7             937700   295.57201      295.53638     -621.73509      96.774991     -524.96009              0 
 937.8             937800   295.44713      295.29842     -551.72726      96.734101     -454.99316              0 
 937.9             937900   302.09285      302.03684     -625.15902      98.910017     -526.249                0 
 938               938000   297.94253      297.92616     -538.82458      97.551137     -441.27345              0 
 938.1             938100   297.53123      297.46492     -727.6974       97.416468     -630.28093              0 
 938.2             938200   290.78682      290.6882      -482.04455      95.208243     -386.83631              0 
 938.3             938300   303.1795       303.12251     -580.26234      99.265803     -480.99654              0 
 938.4             938400   299.45698      299.36585     -664.81625      98.04699      -566.76926              0 
 938.5             938500   304.52575      304.51952     -368.45909      99.706587     -268.7525               0 
 938.6             938600   305.32287      305.07401     -699.47017      99.967578     -599.5026               0 
 938.7             938700   298.55982      298.47118     -608.72654      97.753247     -510.97329              0 
 938.8             938800   296.42967      296.31572     -519.21546      97.055802     -422.15965              0 
 938.9             938900   301.16821      301.1496      -332.8627       98.607276     -234.25542              0 
 939               939000   298.16987      298.1199      -668.51406      97.625572     -570.88849              0 
 939.1             939100   300.2234       300.05084     -702.6073       98.297929     -604.30937              0 
 939.2             939200   309.2937       309.19066     -519.55828      101.26769     -418.29059              0 
 939.3             939300   307.98538      307.79225     -524.88686      100.83933     -424.04753              0 
 939.4             939400   304.23312      304.16257     -535.02936      99.610774     -435.41859              0 
 939.5             939500   305.49164      305.4194      -572.41998      100.02283     -472.39715              0 
 939.6             939600   294.52176      294.26872     -588.39105      96.431121     -491.95993              0 
 939.7             939700   300.39558      300.32662     -786.89866      98.354302     -688.54435              0 
 939.8             939800   300.37968      300.32196     -510.53643      98.349097     -412.18733              0 
 939.9             939900   300.13405      300.03253     -464.71431      98.268674     -366.44564              0 
 940               940000   297.74629      297.50199     -547.22411      97.486885     -449.73723              0 
 940.1             940100   298.15824      297.9656      -486.79774      97.621762     -389.17598              0 
 940.2             940200   297.78145      297.61051     -623.53774      97.498395     -526.03935              0 
 940.3             940300   291.91511      291.86598     -480.96935      95.577661     -385.39169              0 
 940.4             940400   308.9195       308.78623     -488.37312      101.14517     -387.22795              0 
 940.5             940500   297.30518      297.27226     -516.9535       97.342456     -419.61105              0 
 940.6             940600   292.56327      292.41597     -543.61172      95.789879     -447.82184              0 
 940.7             940700   301.70936      301.49528     -677.93702      98.784456     -579.15256              0 
 940.8             940800   302.01221      302.00265     -524.62847      98.883614     -425.74485              0 
 940.9             940900   297.68884      297.58067     -508.17426      97.468074     -410.70618              0 
 941               941000   296.31132      296.30723     -514.64842      97.017053     -417.63137              0 
 941.1             941100   292.06869      292.0661      -680.40979      95.627947     -584.78184              0 
 941.2             941200   305.23444      305.15756     -538.64961      99.938625     -438.71099              0 
 941.3             941300   295.17565      295.12227     -553.3104       96.645214     -456.66519              0 
 941.4             941400   302.74326      302.46265     -446.88925      99.122972     -347.76628              0 
 941.5             941500   303.39348      303.20059     -343.88159      99.335865     -244.54572              0 
 941.6             941600   302.54194      302.43573     -546.43918      99.057055     -447.38213              0 
 941.7             941700   305.10704      305.0732      -440.37234      99.896911     -340.47543              0 
 941.8             941800   299.01605      298.91411     -437.72419      97.902623     -339.82157              0 
 941.9             941900   296.4586       296.29414     -578.96738      97.065274     -481.90211              0 
 942               942000   304.90882      304.86382     -669.60194      99.83201      -569.76993              0 
 942.1             942100   301.42061      301.38116     -605.04117      98.689916     -506.35125              0 
 942.2             942200   304.22715      304.08043     -468.02966      99.608821     -368.42084              0 
 942.3             942300   294.82123      294.66619     -669.75144      96.529172     -573.22227              0 
 942.4             942400   294.28921      294.18551     -581.06914      96.354979     -484.71416              0 
 942.5             942500   295.69658      295.50562     -552.96903      96.815776     -456.15325              0 
 942.6             942600   303.61675      303.54079     -458.32971      99.408967     -358.92074              0 
 942.7             942700   308.99509      308.68749     -625.48012      101.16992     -524.31019              0 
 942.8             942800   301.91895      301.89548     -524.67552      98.85308      -425.82244              0 
 942.9             942900   293.90451      293.88787     -589.78866      96.229023     -493.55963              0 
 943               943000   298.00882      297.89369     -564.60561      97.572841     -467.03277              0 
 943.1             943100   301.18529      301.08581     -535.48277      98.612867     -436.86991              0 
 943.2             943200   295.41588      295.29222     -457.39989      96.723871     -360.67602              0 
 943.3             943300   303.70203      303.5491      -405.84014      99.436888     -306.40325              0 
 943.4             943400   302.96527      302.94777     -397.77691      99.195659     -298.58125              0 
 943.5             943500   294.93224      294.88089     -526.32852      96.565519     -429.76301              0 
 943.6             943600   297.02077      296.97698     -624.27367      97.249335     -527.02433              0 
 943.7             943700   297.71569      297.6412      -601.5218       97.476866     -504.04493              0 
 943.8             943800   297.02907      296.88673     -752.02707      97.252054     -654.77501              0 
 943.9             943900   301.81465      301.45747     -487.50609      98.818929     -388.68716              0 
 944               944000   299.63582      299.56245     -640.05979      98.105544     -541.95425              0 
 944.1             944100   301.87816      301.8126      -607.04421      98.839725     -508.20448              0 
 944.2             944200   308.46183      308.32492     -517.83995      100.99532     -416.84463              0 
 944.3             944300   303.85551      303.72941     -555.25167      99.487139     -455.76453              0 
 944.4             944400   296.60797      296.4833      -571.30028      97.11418      -474.18611              0 
 944.5             944500   299.04223      298.86097     -434.41346      97.911197     -336.50226              0 
 944.6             944600   302.7814       302.56454     -611.32394      99.135458     -512.18848              0 
 944.7             944700   307.46457      307.45089     -494.69631      100.6688      -394.02751              0 
 944.8             944800   298.43251      298.40857     -750.26276      97.711563     -652.5512               0 
 944.9             944900   300.49105      300.35631     -587.89861      98.385563     -489.51305              0 
 945               945000   305.28599      305.23252     -713.07396      99.955502     -613.11846              0 
 945.1             945100   303.47334      303.33159     -644.74419      99.362011     -545.38218              0 
 945.2             945200   308.44137      308.43055     -545.5