152
Lattice="10 0.0 0.0  0.0 10 0.0  0.0 0.0 10"	TIME: 0
B	-4.000000	-4.100000	-4.000000	9.382500e-01	0.000000e+00	0.000000e+00	0.000000e+00	0.000000e+00	0.000000e+00
B	-4.000000	-4.000000	-2.000000	-2.248500e-01	0.000000e+00	0.000000e+00	0.000000e+00	0.000000e+00	0.000000e+00
B	-4.000000	-2.000000	-2.100000	7.455600e-01	1.000000e+00	0.000000e+00	0.000000e+00	0.000000e+00	0.000000e+00
B	-2.000000	-2.000000	-2.000000	-3.340500e-01	0.000000e+00	0.000000e+00	0.000000e+00	0.000000e+00	0.000000e+00
B	-2.000000	-2.000000	0.000000	6.304800e-01	0.000000e+00	0.000000e+00	0.000000e+00	0.000000e+00	0.000000e+00
B	-2.000000	0.100000	0.000000	0.000000e+00	0.000000e+00	0.000000e+00	0.000000e+00	0.000000e+00	0.000000e+00
B	0.000000	0.000000	0.000000	2.922400e-01	0.000000e+00	0.000000e+00	0.000000e+00	0.000000e+00	0.000000e+00
B	0.000000	2.000000	0.000000	-1.176500e-01	0.000000e+00	1.000000e+00	0.000000e+00	0.000000e+00	0.000000e+00
B	2.000000	2.000000	0.000000	2.460300e-01	0.000000e+00	0.000000e+00	0.000000e+00	0.000000e+00	0.000000e+00
B	2.000000	2.000000	2.000000	-1.988600e-01	0.000000e+00	0.000000e+00	0.000000e+00	0.000000e+00	0.000000e+00
B	4.000000	2.000000	2.100000	8.204500e-01	0.000000e+00	0.000000e+00	0.000000e+00	0.000000e+00	0.000000e+00
B	4.000000	2.000000	4.000000	-2.312900e-01	0.000000e+00	0.000000e+00	0.000000e+00	0.000000e+00	0.000000e+00
S	-1.409050	0.524850	0.794300	-9.480000e-03	3.748000e-02	-8.007000e-02	0.000000e+00	0.000000e+00	0.000000e+00
S	0.308080	2.572940	-1.957050	9.845000e-02	1.539000e-02	7.552000e-02	0.000000e+00	0.000000e+00	0.000000e+00
S	2.478090	1.289100	-4.645790	4.956000e-02	6.665000e-02	8.508000e-02	0.000000e+00	0.000000e+00	0.000000e+00
S	3.732710	3.310380	4.794340	4.876000e-02	8.067000e-02	9.672000e-02	0.000000e+00	0.000000e+00	0.000000e+00
S	1.668800	-0.027410	-3.360320	6.600000e-02	7.779000e-02	-8.460000e-02	0.000000e+00	0.000000e+00	0.000000e+00
S	1.497070	-2.519560	1.294800	-5.417000e-02	4.012000e-02	-3.663000e-02	0.000000e+00	0.000000e+00	0.000000e+00
S	-1.712230	-2.685720	-4.258390	1.266100e-01	-5.527000e-02	3.023000e-02	0.000000e+00	0.000000e+00	0.000000e+00
S	0.106860	4.714660	-2.199580	9.220000e-03	4.385000e-02	-7.734000e-02	0.000000e+00	0.000000e+00	0.000000e+00
S	-0.285170	0.925400	4.443180	-9.820000e-03	-3.273000e-02	6.954000e-02	0.000000e+00	0.000000e+00	0.000000e+00
S	-0.654870	-4.967690	-1.550570	1.970000e-02	1.666500e-01	-1.532200e-01	0.000000e+00	0.000000e+00	0.000000e+00
S	1.754760	-0.170500	-0.180640	-3.901000e-02	4.242000e-02	-6.349000e-02	0.000000e+00	0.000000e+00	0.000000e+00
S	1.218230	-4.591360	-0.860160	3.920000e-02	3.479000e-02	2.753000e-02	0.000000e+00	0.000000e+00	0.000000e+00
S	-1.528840	-3.153780	1.091060	2.543000e-02	4.615000e-02	-3.433000e-02	0.000000e+00	0.000000e+00	0.000000e+00
S	2.404380	-2.977870	4.209140	3.695000e-02	3.063000e-02	-4.855000e-02	0.000000e+00	0.000000e+00	0.000000e+00
S	0.324410	-4.123560	-2.395030	7.548000e-02	3.722000e-02	-8.125000e-02	0.000000e+00	0.000000e+00	0.000000e+00
S	-3.887240	-1.383990	0.766910	1.864000e-02	3.331000e-02	-4.224000e-02	0.000000e+00	0.000000e+00	0.000000e+00
S	2.757670	-2.116210	-1.703580	-6.205000e-02	9.687000e-02	-9.928000e-02	0.000000e+00	0.000000e+00	0.000000e+00
S	3.273910	-1.685210	-3.117990	-1.270000e-02	9.173000e-02	8.379000e-02	0.000000e+00	0.000000e+00	0.000000e+00
S	2.648710	1.990750	-3.788570	3.716000e-02	-2.323000e-02	5.485000e-02	0.000000e+00	0.000000e+00	0.000000e+00
S	4.430510	4.162730	3.619170	-5.929000e-02	5.873000e-02	1.096100e-01	0.000000e+00	0.000000e+00	0.000000e+00
S	-2.027120	4.049320	4.096430	7.480000e-02	-1.003700e-01	1.524000e-02	0.000000e+00	0.000000e+00	0.000000e+00
S	-3.372430	-2.260890	3.645790	-1.520000e-03	-7.270000e-03	6.979000e-02	0.000000e+00	0.000000e+00	0.000000e+00
S	-0.040230	-2.089470	-3.195790	3.684000e-02	4.551000e-02	-7.219000e-02	0.000000e+00	0.000000e+00	0.000000e+00
S	1.031090	-0.075780	3.381340	4.485000e-02	-6.436000e-02	-5.561000e-02	0.000000e+00	0.000000e+00	0.000000e+00
S	-0.014750	-3.787410	-3.617620	-2.791000e-02	-3.504000e-02	8.638000e-02	0.000000e+00	0.000000e+00	0.000000e+00
S	4.084850	1.220950	3.368280	6.363000e-02	-7.900000e-04	-3.301000e-02	0.000000e+00	0.000000e+00	0.000000e+00
S	-1.056730	1.588310	1.088830	-4.822000e-02	-6.975000e-02	-8.549000e-02	0.000000e+00	0.000000e+00	0.000000e+00
S	-3.921520	1.472070	-1.364020	-4.235000e-02	-3.372000e-02	-8.177000e-02	0.000000e+00	0.000000e+00	0.000000e+00
S	-0.726720	4.344950	0.835700	-4.691000e-02	3.175000e-02	5.236000e-02	0.000000e+00	0.000000e+00	0.000000e+00
S	-0.125730	-3.427280	3.830370	2.513000e-02	3.540000e-03	-5.843000e-02	0.000000e+00	0.000000e+00	0.000000e+00
S	0.575610	-0.738010	3.299390	-2.112000e-02	-5.113000e-02	-3.480000e-02	0.000000e+00	0.000000e+00	0.000000e+00
S	2.293600	1.386540	4.848450	-3.235000e-02	7.951000e-02	-7.279000e-02	0.000000e+00	0.000000e+00	0.000000e+00
S	-0.892120	-4.945910	2.832820	5.488000e-02	-4.126000e-02	-7.707000e-02	0.000000e+00	0.000000e+00	0.000000e+00
S	3.655350	2.210060	-4.508380	-1.018000e-02	9.729000e-02	4.158000e-02	0.000000e+00	0.000000e+00	0.000000e+00
S	-2.891170	-0.261060	3.651810	-8.122000e-02	-8.009000e-02	-2.342000e-02	0.000000e+00	0.000000e+00	0.000000e+00
S	-1.982370	1.571200	3.090950	-7.366000e-02	-8.970000e-02	-8.932000e-02	0.000000e+00	0.000000e+00	0.000000e+00
S	-0.422840	2.808680	1.920760	-1.149000e-02	-7.618000e-02	1.793000e-02	0.000000e+00	0.000000e+00	0.000000e+00
S	0.786350	0.298990	0.950450	-2.762000e-02	-3.914000e-02	7.774000e-02	0.000000e+00	0.000000e+00	0.000000e+00
S	-0.234150	-3.301800	1.097290	5.150000e-03	2.379000e-02	1.924000e-02	0.000000e+00	0.000000e+00	0.000000e+00
S	-2.663440	3.298080	-4.299100	-8.023000e-02	1.847500e-01	-6.607000e-02	0.000000e+00	0.000000e+00	0.000000e+00
S	-0.182670	-2.745090	3.267690	-4.183000e-02	-2.856000e-02	7.566000e-02	0.000000e+00	0.000000e+00	0.000000e+00
S	-1.557490	3.149090	1.591460	-9.273000e-02	-4.851000e-02	5.565000e-02	0.000000e+00	0.000000e+00	0.000000e+00
S	1.259640	3.361040	-1.918430	-5.580000e-02	-6.040000e-02	2.249000e-02	0.000000e+00	0.000000e+00	0.000000e+00
S	-3.902670	1.746050	2.822620	4.389000e-02	-5.993000e-02	-1.976000e-02	0.000000e+00	0.000000e+00	0.000000e+00
S	-1.843420	-0.659910	-2.690040	-2.285000e-02	6.570000e-03	-6.906000e-02	0.000000e+00	0.000000e+00	0.000000e+00
S	0.553980	-4.854210	-1.197850	-1.235700e-01	-3.892000e-02	4.748000e-02	0.000000e+00	0.000000e+00	0.000000e+00
S	-2.395550	1.496590	0.523160	8.392000e-02	3.720000e-02	6.196000e-02	0.000000e+00	0.000000e+00	0.000000e+00
S	1.978480	-1.880500	1.458890	-9.880000e-02	6.590000e-03	6.878000e-02	0.000000e+00	0.000000e+00	0.000000e+00
S	1.484470	1.426930	0.185150	-1.986000e-02	-2.757000e-02	4.377000e-02	0.000000e+00	0.000000e+00	0.000000e+00
S	3.018970	1.778120	-3.471240	-9.342000e-02	-8.729000e-02	3.714000e-02	0.000000e+00	0.000000e+00	0.000000e+00
S	-3.123840	1.189580	2.003010	1.357000e-02	-9.977000e-02	-9.886000e-02	0.000000e+00	0.000000e+00	0.000000e+00
S	-1.947610	-2.384300	1.553680	7.151000e-02	-6.377000e-02	-3.173000e-02	0.000000e+00	0.000000e+00	0.000000e+00
S	1.673410	3.790090	1.533050	-3.735000e-02	7.700000e-02	-6.275000e-02	0.000000e+00	0.000000e+00	0.000000e+00
S	-3.428610	0.034610	3.289570	3.513000e-02	8.083000e-02	-6.178000e-02	0.000000e+00	0.000000e+00	0.000000e+00
S	-1.054790	2.060670	3.689240	9.480000e-03	4.779000e-02	8.650000e-02	0.000000e+00	0.000000e+00	0.000000e+00
S	-2.668810	4.265760	0.514430	8.668000e-02	-1.120000e-03	1.051000e-02	0.000000e+00	0.000000e+00	0.000000e+00
S	4.391290	2.996460	3.141390	1.890000e-02	3.144000e-02	9.906000e-02	0.000000e+00	0.000000e+00	0.000000e+00
S	4.358520	-1.754590	3.743090	1.783000e-02	2.755000e-02	5.186000e-02	0.000000e+00	0.000000e+00	0.000000e+00
S	2.754210	2.949100	-2.372150	2.088000e-02	-5.890000e-03	-6.661000e-02	0.000000e+00	0.000000e+00	0.000000e+00
S	2.954900	3.650860	3.730210	3.288000e-02	-1.750000e-02	2.240000e-02	0.000000e+00	0.000000e+00	0.000000e+00
S	0.968990	1.456010	0.385570	-7.033000e-02	1.580000e-02	-9.341000e-02	0.000000e+00	0.000000e+00	0.000000e+00
S	2.009100	0.181510	3.326090	3.010000e-03	-7.747000e-02	-2.040000e-03	0.000000e+00	0.000000e+00	0.000000e+00
S	0.103490	-4.515000	3.143510	-2.307000e-02	2.753000e-02	-9.580000e-03	0.000000e+00	0.000000e+00	0.000000e+00
S	-3.560180	-0.869220	-2.529670	-1.865000e-02	-9.651000e-02	4.352000e-02	0.000000e+00	0.000000e+00	0.000000e+00
S	0.737210	3.129470	0.826820	-1.065000e-02	-4.530000e-03	9.903000e-02	0.000000e+00	0.000000e+00	0.000000e+00
S	-4.412770	-4.257400	1.407660	1.946000e-02	-5.548000e-02	-5.604000e-02	0.000000e+00	0.000000e+00	0.000000e+00
S	1.302430	4.235130	2.379390	-7.430000e-03	-1.229000e-02	7.012000e-02	0.000000e+00	0.000000e+00	0.000000e+00
S	4.526620	4.489110	3.990860	5.340000e-02	-3.329000e-02	7.350000e-03	0.000000e+00	0.000000e+00	0.000000e+00
S	-1.808640	-0.224490	4.498200	-6.770000e-03	1.768600e-01	9.346000e-02	0.000000e+00	0.000000e+00	0.000000e+00
S	-3.162350	-0.419610	2.802240	5.329000e-02	8.096000e-02	-4.848000e-02	0.000000e+00	0.000000e+00	0.000000e+00
S	2.616120	4.635050	-1.681540	-1.952000e-02	1.121600e-01	1.108900e-01	0.000000e+00	0.000000e+00	0.000000e+00
S	1.221670	-3.089720	-0.220390	-2.798000e-02	3.078000e-02	8.330000e-02	0.000000e+00	0.000000e+00	0.000000e+00
S	-2.893080	1.065420	3.654340	-7.804000e-02	-2.529000e-02	-6.020000e-02	0.000000e+00	0.000000e+00	0.000000e+00
S	1.465200	0.926920	1.765540	1.927000e-02	-8.823000e-02	1.217000e-02	0.000000e+00	0.000000e+00	0.000000e+00
S	0.636170	-2.573740	-4.810890	-3.123000e-02	-9.819000e-02	8.474000e-02	0.000000e+00	0.000000e+00	0.000000e+00
S	1.014270	2.706860	3.871970	8.665000e-02	-6.539000e-02	-1.040000e-02	0.000000e+00	0.000000e+00	0.000000e+00
S	-0.122790	2.952310	1.390090	9.314000e-02	-6.893000e-02	-4.142000e-02	0.000000e+00	0.000000e+00	0.000000e+00
S	3.822040	-1.339720	3.994310	4.953000e-02	-4.840000e-03	-4.540000e-02	0.000000e+00	0.000000e+00	0.000000e+00
S	4.466400	-3.776740	3.656790	2.464000e-02	4.373000e-02	8.491000e-02	0.000000e+00	0.000000e+00	0.000000e+00
S	-3.159340	-2.177160	-3.328350	-5.940000e-02	2.523000e-02	-6.475000e-02	0.000000e+00	0.000000e+00	0.000000e+00
S	-3.733310	-2.724480	4.469250	-9.723000e-02	-6.784000e-02	-7.600000e-02	0.000000e+00	0.000000e+00	0.000000e+00
S	-0.381520	1.485450	4.152210	-7.983000e-02	2.285000e-02	-8.589000e-02	0.000000e+00	0.000000e+00	0.000000e+00
S	-1.062540	-0.035690	-0.634150	-4.136000e-02	-5.119000e-02	8.248000e-02	0.000000e+00	0.000000e+00	0.000000e+00
S	0.661640	-3.092910	-4.652840	-1.363000e-02	6.278000e-02	5.068000e-02	0.000000e+00	0.000000e+00	0.000000e+00
S	-1.436170	4.979700	-4.643340	4.710000e-03	-5.981000e-02	3.236000e-02	0.000000e+00	0.000000e+00	0.000000e+00
S	4.997870	-1.723840	3.893430	2.934000e-02	-3.170000e-02	-8.997000e-02	0.000000e+00	0.000000e+00	0.000000e+00
S	2.667010	3.033300	1.987130	3.638000e-02	8.084000e-02	-3.741000e-02	0.000000e+00	0.000000e+00	0.000000e+00
S	2.524790	-2.020670	3.093710	-6.219000e-02	1.822000e-02	-8.931000e-02	0.000000e+00	0.000000e+00	0.000000e+00
S	-3.985460	-3.427250	-2.558510	-7.277000e-02	1.782000e-02	-8.839000e-02	0.000000e+00	0.000000e+00	0.000000e+00
S	3.895530	4.455020	-4.439780	8.504000e-02	-6.190000e-03	-4.861000e-02	0.000000e+00	0.000000e+00	0.000000e+00
S	0.870110	-3.311630	0.845850	-4.730000e-03	6.311000e-02	8.521000e-02	0.000000e+00	0.000000e+00	0.000000e+00
S	0.265230	0.822500	2.293980	-5.495000e-02	-4.717000e-02	2.672000e-02	0.000000e+00	0.000000e+00	0.000000e+00
S	0.381750	-4.833490	4.315180	-3.049000e-02	-5.886000e-02	4.530000e-03	0.000000e+00	0.000000e+00	0.000000e+00
S	-0.990150	-1.928320	1.799040	2.903000e-02	-1.133000e-02	-4.620000e-02	0.000000e+00	0.000000e+00	0.000000e+00
S	2.031860	-1.671080	-2.854760	5.184000e-02	-4.838000e-02	3.671000e-02	0.000000e+00	0.000000e+00	0.000000e+00
S	-4.838230	3.451230	3.524110	2.015000e-02	-3.570000e-02	3.359000e-02	0.000000e+00	0.000000e+00	0.000000e+00
S	0.268300	3.480000	-2.497900	-4.875000e-02	-8.535000e-02	2.880000e-03	0.000000e+00	0.000000e+00	0.000000e+00
S	3.898130	1.114110	0.310330	6.427000e-02	9.179000e-02	4.735000e-02	0.000000e+00	0.000000e+00	0.000000e+00
S	-1.560410	-1.400580	-4.560850	-9.523000e-02	-9.898000e-02	-2.550000e-03	0.000000e+00	0.000000e+00	0.000000e+00
S	-2.071140	2.082620	3.201460	1.480000e-03	-6.510000e-03	-8.435000e-02	0.000000e+00	0.000000e+00	0.000000e+00
S	-3.090160	-0.163520	4.233810	-9.132000e-02	-8.312000e-02	-5.103000e-02	0.000000e+00	0.000000e+00	0.000000e+00
S	2.113550	1.112410	-4.071420	9.231000e-02	7.349000e-02	-6.678000e-02	0.000000e+00	0.000000e+00	0.000000e+00
S	-0.240530	2.572820	2.775050	-9.860000e-02	1.572000e-02	4.729000e-02	0.000000e+00	0.000000e+00	0.000000e+00
S	2.437270	4.225720	-4.035960	5.753000e-02	8.929000e-02	-7.970000e-02	0.000000e+00	0.000000e+00	0.000000e+00
S	-2.251030	-2.606790	3.097430	-8.099000e-02	4.935000e-02	-4.456000e-02	0.000000e+00	0.000000e+00	0.000000e+00
S	-3.266990	4.377140	2.608620	-8.066000e-02	9.622000e-02	6.905000e-02	0.000000e+00	0.000000e+00	0.000000e+00
S	-1.584600	1.924630	-0.434860	-1.312000e-02	3.081000e-02	-3.520000e-02	0.000000e+00	0.000000e+00	0.000000e+00
S	1.004920	-3.700240	-4.187350	-2.440000e-02	-7.261000e-02	3.198000e-02	0.000000e+00	0.000000e+00	0.000000e+00
S	-3.855410	3.806830	0.824500	-5.783000e-02	3.367000e-02	5.780000e-03	0.000000e+00	0.000000e+00	0.000000e+00
S	-1.876570	4.432220	2.682060	-7.558000e-02	-9.235000e-02	2.990000e-03	0.000000e+00	0.000000e+00	0.000000e+00
S	-1.007000	-2.884350	-0.473500	-6.797000e-02	-3.835000e-02	-1.325000e-02	0.000000e+00	0.000000e+00	0.000000e+00
S	-4.945650	1.497870	-3.737780	-7.610000e-03	-8.316000e-02	5.605000e-02	0.000000e+00	0.000000e+00	0.000000e+00
S	2.859320	1.846770	4.102270	7.344000e-02	-8.747000e-02	-9.056000e-02	0.000000e+00	0.000000e+00	0.000000e+00
S	0.270750	-3.228670	4.278660	-7.810000e-02	-2.240000e-02	1.924000e-02	0.000000e+00	0.000000e+00	0.000000e+00
S	-1.384090	2.003400	0.394130	-1.868000e-02	6.449000e-02	1.554000e-02	0.000000e+00	0.000000e+00	0.000000e+00
S	4.215510	-2.782740	2.892440	-2.516000e-02	-2.362000e-02	-8.050000e-02	0.000000e+00	0.000000e+00	0.000000e+00
S	3.079590	-1.126770	2.472770	8.684000e-02	6.985000e-02	6.629000e-02	0.000000e+00	0.000000e+00	0.000000e+00
S	2.144320	1.352040	0.161390	2.493000e-02	4.800000e-04	1.576000e-02	0.000000e+00	0.000000e+00	0.000000e+00
S	1.718410	-4.705240	2.559450	1.994000e-02	-7.220000e-02	-7.121000e-02	0.000000e+00	0.000000e+00	0.000000e+00
S	-3.041020	2.774100	3.442810	4.706000e-02	-6.319000e-02	3.334000e-02	0.000000e+00	0.000000e+00	0.000000e+00
S	-1.870100	-3.944240	3.884330	-7.955000e-02	-4.040000e-03	-4.594000e-02	0.000000e+00	0.000000e+00	0.000000e+00
S	-3.002760	-3.122640	1.576430	8.940000e-02	-5.562000e-02	1.380000e-03	0.000000e+00	0.000000e+00	0.000000e+00
S	2.784630	4.363490	-3.578810	-4.108000e-02	1.220000e-02	2.890000e-02	0.000000e+00	0.000000e+00	0.000000e+00
S	3.734140	-2.671520	1.739960	2.587000e-02	6.651000e-02	6.260000e-02	0.000000e+00	0.000000e+00	0.000000e+00
S	2.733010	-4.715470	0.904070	2.352000e-02	5.275000e-02	5.489000e-02	0.000000e+00	0.000000e+00	0.000000e+00
S	-2.157110	-4.232470	3.800090	-6.546000e-02	-6.420000e-02	-2.804000e-02	0.000000e+00	0.000000e+00	0.000000e+00
S	-0.569570	-1.212900	1.475220	-7.986000e-02	-3.486000e-02	7.389000e-02	0.000000e+00	0.000000e+00	0.000000e+00
S	1.076000	-3.958260	3.057890	4.994000e-02	-2.024000e-02	-2.664000e-02	0.000000e+00	0.000000e+00	0.000000e+00
S	-1.057610	-2.278110	0.996440	-8.635000e-02	8.031000e-02	-1.356000e-02	0.000000e+00	0.000000e+00	0.000000e+00
S	3.812320	1.748500	-0.393480	-5.670000e-03	-4.151000e-02	-5.512000e-02	0.000000e+00	0.000000e+00	0.000000e+00
S	-2.539290	0.767210	-1.988310	-7.478000e-02	4.989000e-02	-3.970000e-03	0.000000e+00	0.000000e+00	0.000000e+00
S	-0.141340	-3.075140	3.588660	-7.332000e-02	-4.137000e-02	-6.308000e-02	0.000000e+00	0.000000e+00	0.000000e+00
S	-4.971720	4.007720	-2.112480	6.172000e-02	3.010000e-02	3.751000e-02	0.000000e+00	0.000000e+00	0.000000e+00
S	-3.245870	-4.552710	4.597160	5.501000e-02	-7.741000e-02	7.225000e-02	0.000000e+00	0.000000e+00	0.000000e+00
S	-2.927430	4.941960	0.361150	3.358000e-02	-6.830000e-03	6.571000e-02	0.000000e+00	0.000000e+00	0.000000e+00
S	3.923240	2.119060	-0.947330	-6.130000e-02	6.760000e-02	-6.906000e-02	0.000000e+00	0.000000e+00	0.000000e+00
S	1.736480	-1.761480	-1.528040	6.500000e-03	-8.550000e-03	2.807000e-02	0.000000e+00	0.000000e+00	0.000000e+00
S	3.970550	3.441130	-2.645650	-1.657000e-02	4.789000e-02	-4.630000e-03	0.000000e+00	0.000000e+00	0.000000e+00
S	-4.075060	-0.365580	4.412430	7.615000e-02	2.802000e-02	-4.672000e-02	0.000000e+00	0.000000e+00	0.000000e+00
S	-2.852590	-2.219950	-0.515770	-8.350000e-03	-3.948000e-02	1.731000e-02	0.000000e+00	0.000000e+00	0.000000e+00
152
Lattice="10 0.0 0.0  0.0 10 0.0  0.0 0.0 10"	TIME: 1
B	-3.062650	-4.099862	-3.997316	9.339957e-01	5.315632e-04	1.001202e-02	-1.559927e+00	1.541487e-01	2.689293e+00
B	-4.220908	-3.985319	-2.000472	-2.086995e-01	4.763349e-02	-6.905345e-03	4.891234e+00	9.954039e+00	-2.596871e+00
B	-3.256811	-1.049529	-2.053994	7.959994e-01	8.041821e-01	2.409006e-01	8.320959e+00	-1.148369e+01	2.313033e+01
B	-2.319755	-2.004625	-1.997300	-2.959894e-01	-1.767679e-02	9.343673e-03	5.525027e+00	-4.703171e+00	2.174362e+00
B	-1.370589	-1.994288	-0.001766	6.259772e-01	1.269479e-02	-6.931509e-03	-1.441712e+00	1.759954e+00	-1.946818e+00
B	-1.994727	0.094044	-0.000107	1.601060e-02	-1.334459e-02	-2.219545e-04	3.265318e+00	-1.859317e+00	-2.416534e-02
B	0.287036	0.002433	0.000622	2.763785e-01	9.113610e-03	3.046363e-03	-3.307736e+00	2.448465e+00	1.151015e+00
B	-0.109877	1.997858	0.997526	-9.269548e-02	-8.400251e-03	9.895206e-01	5.550703e+00	-2.406797e+00	-3.394846e+00
B	2.236779	2.032612	-0.006283	2.203707e-01	5.651371e-02	-5.906657e-03	-4.997900e+00	2.678188e+00	1.926718e+00
B	1.818116	2.000028	2.000227	-1.482834e-01	7.877213e-05	1.252376e-04	9.969881e+00	1.600832e-02	-1.682751e-01
B	4.803684	1.999999	2.096704	7.692374e-01	-1.942098e-06	-2.781122e-03	-1.067163e+01	2.390824e-04	1.164823e+00
B	3.768858	2.000344	4.002833	-2.291795e-01	7.764224e-04	1.266046e-03	1.235042e+00	1.516823e-01	-1.465873e+00
S	-1.418422	0.562290	0.714388	-9.254715e-03	3.736311e-02	-7.974319e-02	2.458368e-02	-2.609345e-02	3.507260e-02
S	0.406491	2.588016	-1.881364	9.834503e-02	1.470528e-02	7.587849e-02	-2.258626e-02	-8.774389e-02	4.321560e-02
S	2.552395	1.368012	-4.597473	1.078433e-01	9.588130e-02	8.507803e-04	6.603856e+00	3.398087e+00	-8.881786e+00
S	3.781476	3.391047	4.891078	4.877108e-02	8.066423e-02	9.675342e-02	9.260120e-04	-4.450848e-04	2.813311e-03
S	1.734796	0.050371	-3.444914	6.599140e-02	7.777094e-02	-8.458807e-02	-1.057242e-03	-2.459232e-03	1.447607e-03
S	1.440071	-2.483258	1.256984	-5.988549e-02	3.235074e-02	-3.929802e-02	-5.583204e-01	-7.764122e-01	-3.448011e-01
S	-1.585621	-2.741015	-4.228154	1.266089e-01	-5.532222e-02	3.024223e-02	3.311698e-04	-5.954476e-03	1.527314e-03
S	0.116077	4.758535	-2.276915	9.214556e-03	4.389431e-02	-7.733141e-02	-2.770456e-04	2.841242e-03	4.140029e-04
S	-0.289486	0.864088	4.528798	-1.996794e-03	-7.196338e-02	9.217268e-02	1.362424e-01	-5.171749e-01	3.679718e-01
S	-0.635219	-4.801044	-1.703804	1.959301e-02	1.666442e-01	-1.532549e-01	-1.279524e-02	3.444116e-04	-5.407350e-03
S	1.715754	-0.128086	-0.244134	-3.900076e-02	4.240729e-02	-6.349806e-02	1.729356e-03	-1.440634e-03	-9.562880e-04
S	1.260553	-4.555327	-0.831147	4.392720e-02	3.667586e-02	2.971274e-02	1.448364e-01	5.851283e-02	5.560506e-02
S	-1.503317	-3.108772	1.056363	2.578530e-02	4.353392e-02	-3.528249e-02	9.829276e-02	-3.779181e-01	-1.767037e-01
S	2.441330	-2.947244	4.160595	3.694945e-02	3.062170e-02	-4.853951e-02	-1.929626e-05	-7.622174e-04	9.882682e-04
S	0.399904	-4.086343	-2.476253	7.551763e-02	3.720893e-02	-8.117682e-02	7.318045e-03	-2.792909e-03	1.406193e-02
S	-3.868601	-1.350680	0.724670	1.863899e-02	3.331076e-02	-4.223929e-02	-9.592539e-05	7.454625e-05	7.562165e-05
S	2.695849	-2.019417	-1.802890	-6.153266e-02	9.670312e-02	-9.935147e-02	7.091955e-02	-2.066184e-02	-1.016658e-02
S	3.261256	-1.593477	-3.034214	-1.259774e-02	9.173877e-02	8.375939e-02	1.356687e-02	1.984095e-03	-4.171200e-03
S	2.533356	2.063803	-3.869816	-1.456727e-01	9.433266e-02	-1.091202e-01	-1.159813e-01	2.984454e-01	-6.099154e-02
S	4.300914	4.014878	3.493278	-1.406996e-01	-1.770736e-01	-1.593724e-01	-2.635092e-02	3.588138e-02	-2.628216e-02
S	-1.952320	3.948949	4.111677	7.480076e-02	-1.003716e-01	1.525480e-02	1.461055e-04	-1.147437e-04	1.448065e-03
S	-3.373766	-2.267894	3.715184	-1.098623e-03	-6.680187e-03	6.895938e-02	5.833063e-02	7.548552e-02	-9.175357e-02
S	-0.003390	-2.043958	-3.267978	3.683911e-02	4.551321e-02	-7.218675e-02	-1.105001e-04	3.271998e-04	4.043875e-04
S	1.078111	-0.136574	3.326175	4.878293e-02	-5.784496e-02	-5.482410e-02	2.626207e-01	4.685071e-01	4.852302e-02
S	-0.042748	-3.822452	-3.531228	-2.808906e-02	-3.504013e-02	8.638704e-02	-1.992336e-02	1.530623e-03	-5.556494e-03
S	4.148544	1.219872	3.335040	6.376583e-02	-1.285909e-03	-3.340841e-02	1.353034e-02	-2.707537e-02	-2.257109e-02
S	-1.104041	1.517398	1.005228	-4.642511e-02	-7.221495e-02	-8.171166e-02	1.641331e-01	-2.739887e-01	3.578815e-01
S	-3.963872	1.438351	-1.445789	-4.235408e-02	-3.371804e-02	-8.176829e-02	-5.482393e-04	2.538868e-04	2.228352e-04
S	-0.773630	4.376704	0.888058	-4.690947e-02	3.175675e-02	5.235701e-02	9.554565e-05	5.017198e-04	-1.945082e-04
S	-0.097395	-4.130761	4.199047	2.006084e-02	-7.591006e-01	3.875778e-01	-2.232545e-01	1.742478e-01	-3.858164e-02
S	0.551815	-0.792841	3.264166	-2.615777e-02	-5.793841e-02	-3.555081e-02	-4.056614e-01	-5.057595e-01	-4.763119e-02
S	2.261074	1.465931	4.775881	-3.270259e-02	7.929326e-02	-7.235800e-02	-3.388414e-02	-1.484738e-02	3.863200e-02
S	-0.837362	-4.987229	2.755707	5.463144e-02	-4.138345e-02	-7.716232e-02	-2.592732e-02	-1.419458e-02	-1.083246e-02
S	3.645217	2.307369	-4.466837	-1.009226e-02	9.732561e-02	4.151511e-02	7.349501e-03	2.960220e-03	-3.870420e-03
S	-2.935592	-0.361056	3.573628	-2.103288e-02	-1.140899e-01	-1.056228e-01	2.260124e+00	-1.640886e+00	-1.248161e+00
S	-2.030278	1.313577	2.965783	-4.385437e-02	-2.875781e-01	-1.315210e-01	2.720134e-02	-1.654972e-01	-4.428828e-02
S	-0.456241	2.723089	1.973657	-4.268376e-02	-8.902761e-02	6.543485e-02	-5.707981e-01	-1.182177e-01	3.029266e-01
S	0.758723	0.259811	1.028207	-2.763068e-02	-3.921111e-02	7.778778e-02	-7.521690e-04	-5.453273e-03	9.133706e-03
S	-0.229094	-3.278030	1.116560	4.950222e-03	2.375113e-02	1.929921e-02	-2.344408e-02	-3.748867e-03	5.696410e-03
S	-2.743670	3.482830	-4.365170	-8.023026e-02	1.847497e-01	-6.606995e-02	-4.012599e-05	-4.399491e-05	7.085381e-06
S	-0.298742	-2.174589	2.767427	-1.245048e-01	6.379679e-01	-5.652377e-01	4.514055e-03	4.844283e-03	1.471271e-03
S	-1.650265	3.100593	1.647101	-9.281171e-02	-4.848654e-02	5.563340e-02	-5.885307e-03	1.810328e-03	-1.291426e-03
S	1.203992	3.300687	-1.895886	-5.545102e-02	-6.026533e-02	2.259652e-02	5.251589e-02	3.007718e-02	9.932757e-03
S	-3.858812	1.686136	2.802874	4.382727e-02	-5.989753e-02	-1.973746e-02	-6.155125e-03	3.529589e-03	6.811753e-04
S	-1.866268	-0.653337	-2.759102	-2.284484e-02	6.576179e-03	-6.906451e-02	8.571474e-04	5.203065e-04	-5.120760e-04
S	0.427334	-4.894378	-1.151830	-1.281957e-01	-4.081737e-02	4.534839e-02	-1.329512e-01	-6.037424e-02	-4.891351e-02
S	-2.311800	1.533725	0.585149	8.353943e-02	3.705179e-02	6.202235e-02	-5.191132e-02	-2.111638e-02	8.003117e-03
S	1.882642	-1.869919	1.528944	-9.276711e-02	1.477653e-02	7.164994e-02	6.086199e-01	8.439171e-01	3.735658e-01
S	1.560895	1.391893	0.181133	6.437370e-02	-3.415800e-02	-1.467113e-02	-8.324626e+00	8.110715e-01	-1.495941e-01
S	3.078238	1.594991	-3.297671	8.978887e-02	-2.037705e-01	2.018715e-01	1.558824e-01	-1.281037e-01	1.652592e-01
S	-3.110253	1.089795	1.904124	1.360021e-02	-9.979710e-02	-9.891029e-02	1.898630e-03	-2.048705e-03	-4.424662e-03
S	-1.876977	-2.447568	1.522559	6.942050e-02	-6.255485e-02	-3.016889e-02	-3.267816e-01	1.966426e-01	2.813718e-01
S	1.636167	3.866991	1.470047	-3.715722e-02	7.683708e-02	-6.320457e-02	1.343985e-02	-6.817169e-03	-3.075763e-02
S	-3.413364	0.135522	3.229999	2.352834e-05	1.179430e-01	-5.703271e-02	-2.008600e+00	2.497962e+00	5.554386e-01
S	-1.045833	2.109031	3.775445	7.936221e-03	4.938303e-02	8.569339e-02	-3.481082e-01	3.469471e-01	-1.572652e-01
S	-2.577412	4.253124	0.527261	9.569561e-02	-2.250649e-02	1.456915e-02	7.278116e-01	-1.567626e+00	2.317681e-01
S	4.410200	3.027835	3.240417	1.892934e-02	3.120707e-02	9.896934e-02	9.374731e-03	-7.192495e-02	-1.976708e-02
S	4.351607	-1.743157	3.779308	-1.361146e-02	-8.902502e-03	2.290360e-02	2.150059e+00	-4.790012e+00	-2.245009e+00
S	2.775072	2.943203	-2.438754	2.084294e-02	-5.904502e-03	-6.659736e-02	-4.169229e-03	-1.685618e-03	1.235159e-03
S	2.987764	3.633363	3.752600	3.284648e-02	-1.749506e-02	2.238135e-02	-4.234315e-03	6.906478e-05	-1.172214e-03
S	0.752555	1.481827	0.342166	-2.561660e-01	2.900422e-02	-3.158860e-02	-7.578379e-01	8.193972e-02	1.440355e-01
S	2.012615	0.104172	3.324032	4.117975e-03	-7.718089e-02	-2.068682e-03	1.434326e-01	3.700519e-02	-1.477156e-04
S	0.080439	-4.487508	3.133894	-2.300794e-02	2.745844e-02	-9.687018e-03	1.196672e-02	-3.086509e-04	-1.685063e-02
S	-3.593574	-0.929278	-2.532366	-1.172606e-01	6.402640e-02	-1.980359e-01	-1.634744e+01	5.837875e+00	-2.322040e+01
S	0.727112	3.125079	0.925501	-8.969682e-03	-4.066614e-03	9.803089e-02	4.286627e-01	1.348435e-01	-2.296653e-01
S	-4.393310	-4.312880	1.351620	1.945907e-02	-5.548073e-02	-5.604013e-02	-7.851576e-05	-5.997532e-05	-1.255088e-05
S	1.294894	4.222963	2.449768	-7.614787e-03	-1.207929e-02	7.058599e-02	-1.130742e-02	1.189500e-02	3.238038e-02
S	4.650332	4.662487	4.233736	1.348128e-01	2.027830e-01	2.764057e-01	2.108736e-02	3.901275e-02	4.412103e-02
S	-1.815383	-0.047630	4.591671	-6.725001e-03	1.768611e-01	9.347938e-02	2.253453e-03	2.158930e-04	1.087752e-03
S	-3.102817	-0.350047	2.740104	6.474246e-02	6.015763e-02	-7.411666e-02	7.674935e-01	-1.376334e+00	-1.981051e+00
S	2.596600	4.747211	-1.570649	-1.951982e-02	1.121615e-01	1.108913e-01	6.113951e-06	9.818774e-05	1.050638e-04
S	1.193725	-3.058917	-0.137202	-2.790933e-02	3.082443e-02	8.307153e-02	7.175754e-03	4.193040e-03	-2.443012e-02
S	-2.971143	1.040197	3.594217	-7.806610e-02	-2.510883e-02	-6.001819e-02	6.391529e-03	3.707926e-02	2.825756e-02
S	1.484500	0.838668	1.777732	1.933552e-02	-8.827211e-02	1.221909e-02	8.449839e-03	-2.854636e-03	6.462086e-03
S	0.591535	-2.437923	-4.798511	-4.842230e-02	1.952202e-01	-6.213980e-03	-3.761569e-02	4.563769e-01	-1.480300e-01
S	1.100921	2.641471	3.861571	8.665191e-02	-6.538885e-02	-1.039832e-02	1.014509e-04	1.158345e-04	1.062316e-04
S	-0.008552	2.893061	1.312440	1.221268e-01	-5.554218e-02	-9.136074e-02	9.783641e-02	2.147821e-01	-4.727547e-01
S	3.852285	-1.329473	3.956973	5.005176e-03	3.048149e-02	-2.764397e-02	-5.858570e+00	4.851580e+00	2.084070e+00
S	4.491046	-3.733032	3.741718	2.465093e-02	4.369103e-02	8.494316e-02	8.572481e-04	-2.701879e-03	2.615327e-03
S	-3.218737	-2.151934	-3.393109	-5.939569e-02	2.522264e-02	-6.476585e-02	7.272968e-05	-5.837858e-04	-1.053846e-03
S	-3.830751	-2.792578	4.393661	-9.770815e-02	-6.841380e-02	-7.513756e-02	-6.444580e-02	-7.387930e-02	9.561893e-02
S	-0.466231	1.536311	4.050620	-8.594942e-02	6.048066e-02	-1.075642e-01	2.180076e-01	1.668947e-01	-1.992014e-01
S	-1.103795	-0.086904	-0.551770	-4.110039e-02	-5.124819e-02	8.226441e-02	4.189110e-02	-9.432837e-03	-2.821856e-02
S	0.659285	-3.260388	-4.532568	-2.906775e-03	-2.196169e-01	1.335255e-01	-1.685721e+00	2.299378e+00	-1.882115e+00
S	-1.431460	4.919890	-4.610980	4.710256e-03	-5.980968e-02	3.235993e-02	3.952599e-05	4.461216e-05	-8.891404e-06
S	5.070849	-1.754497	3.811052	1.039115e-01	-3.054572e-02	-7.874448e-02	3.355110e+00	-6.002426e-02	1.630206e-01
S	2.703422	3.114155	1.949725	3.643454e-02	8.086101e-02	-3.740049e-02	3.360944e-03	1.056148e-04	7.201115e-04
S	2.462575	-2.002483	3.004419	-6.223799e-02	1.815865e-02	-8.927527e-02	-4.106142e-03	-4.796040e-03	2.338060e-03
S	-4.057954	-3.406544	-2.649814	-7.215054e-02	2.263146e-02	-9.333495e-02	7.036313e-02	2.506064e-01	-2.811414e-01
S	3.980581	4.448831	-4.488396	8.505880e-02	-6.187896e-03	-4.862087e-02	1.241360e-03	1.292864e-04	-6.455565e-04
S	0.865346	-3.248713	0.931054	-4.840323e-03	6.265458e-02	8.517775e-02	-2.651598e-02	-7.047523e-02	-1.013877e-02
S	0.210258	0.775331	2.320710	-5.499005e-02	-4.716668e-02	2.674007e-02	-3.194333e-03	4.364298e-04	1.815144e-03
S	0.351295	-4.892418	4.319762	-3.026495e-02	-5.927700e-02	4.681464e-03	1.777231e-01	-3.019257e-01	5.367681e-02
S	-0.961921	-1.941072	1.756239	2.704294e-02	-1.550783e-02	-3.858086e-02	-3.341297e-01	-9.151980e-01	1.000807e+00
S	2.083651	-1.719456	-2.818072	5.172534e-02	-4.837072e-02	3.665533e-02	-1.730789e-02	1.378638e-03	-9.934606e-03
S	-4.818081	3.415530	3.557700	2.014888e-02	-3.569971e-02	3.359033e-02	-1.050746e-04	2.057034e-05	3.268893e-05
S	0.219438	3.394893	-2.495245	-4.899286e-02	-8.484369e-02	2.407325e-03	-2.997165e-02	5.486653e-02	-5.348558e-02
S	3.962507	1.205339	0.358383	6.451324e-02	9.068897e-02	4.881923e-02	3.354999e-02	-1.021000e-01	1.646968e-01
S	-1.655639	-1.499535	-4.563406	-9.522853e-02	-9.892801e-02	-2.563892e-03	-3.238794e-04	5.963693e-03	-1.688522e-03
S	-2.095374	2.244011	3.152827	-2.815151e-02	1.912997e-01	-4.241294e-02	2.263439e-02	1.486891e-01	1.320901e-02
S	-3.203696	-0.235362	4.248757	-1.246779e-01	-6.519377e-02	5.138205e-02	-5.667336e-02	6.008473e-01	2.508241e+00
S	2.180898	1.173182	-4.101741	3.357150e-02	4.315498e-02	1.673447e-02	-6.650034e+00	-3.569485e+00	8.779359e+00
S	-0.338817	2.588166	2.823964	-9.796428e-02	1.498015e-02	5.083510e-02	6.705808e-02	-7.006030e-02	4.543678e-01
S	2.443401	4.295788	-4.190596	-1.134036e-02	6.399367e-02	-1.829829e-01	-4.865216e-01	-1.370263e-01	-9.889235e-01
S	-2.331995	-2.557445	3.052857	-8.093862e-02	4.933962e-02	-4.458797e-02	5.489996e-03	-1.230144e-03	-3.460609e-03
S	-3.347663	4.473361	2.677669	-8.068569e-02	9.622204e-02	6.904903e-02	-2.421748e-03	3.360248e-04	-2.217798e-05