152
Lattice="10 0.0 0.0  0.0 10 0.0  0.0 0.0 10"	TIME: 0
B	-4.000000	-4.100000	-4.000000	9.382500e-01	0.000000e+00	0.000000e+00	0.000000e+00	0.000000e+00	0.000000e+00
B	-4.000000	-4.000000	-2.000000	-2.248500e-01	0.000000e+00	0.000000e+00	0.000000e+00	0.000000e+00	0.000000e+00
B	-4.000000	-2.000000	-2.100000	7.455600e-01	1.000000e+00	0.000000e+00	0.000000e+00	0.000000e+00	0.000000e+00
B	-2.000000	-2.000000	-2.000000	-3.340500e-01	0.000000e+00	0.000000e+00	0.000000e+00	0.000000e+00	0.000000e+00
B	-2.000000	-2.000000	0.000000	6.304800e-01	0.000000e+00	0.000000e+00	0.000000e+00	0.000000e+00	0.000000e+00
B	-2.000000	0.100000	0.000000	0.000000e+00	0.000000e+00	0.000000e+00	0.000000e+00	0.000000e+00	0.000000e+00
B	0.000000	0.000000	0.000000	2.922400e-01	0.000000e+00	0.000000e+00	0.000000e+00	0.000000e+00	0.000000e+00
B	0.000000	2.000000	0.000000	-1.176500e-01	0.000000e+00	1.000000e+00	0.000000e+00	0.000000e+00	0.000000e+00
B	2.000000	2.000000	0.000000	2.460300e-01	0.000000e+00	0.000000e+00	0.000000e+00	0.000000e+00	0.000000e+00
B	2.000000	2.000000	2.000000	-1.988600e-01	0.000000e+00	0.000000e+00	0.000000e+00	0.000000e+00	0.000000e+00
B	4.000000	2.000000	2.100000	8.204500e-01	0.000000e+00	0.000000e+00	0.000000e+00	0.000000e+00	0.000000e+00
B	4.000000	2.000000	4.000000	-2.312900e-01	0.000000e+00	0.000000e+00	0.000000e+00	0.000000e+00	0.000000e+00
S	-1.409050	0.524850	0.794300	-9.480000e-03	3.748000e-02	-8.007000e-02	0.000000e+00	0.000000e+00	0.000000e+00
S	0.308080	2.572940	-1.957050	9.845000e-02	1.539000e-02	7.552000e-02	0.000000e+00	0.000000e+00	0.000000e+00
S	2.478090	1.289100	-4.645790	4.956000e-02	6.665000e-02	8.508000e-02	0.000000e+00	0.000000e+00	0.000000e+00
S	3.732710	3.310380	4.794340	4.876000e-02	8.067000e-02	9.672000e-02	0.000000e+00	0.000000e+00	0.000000e+00
S	1.668800	-0.027410	-3.360320	6.600000e-02	7.779000e-02	-8.460000e-02	0.000000e+00	0.000000e+00	0.000000e+00
S	1.497070	-2.519560	1.294800	-5.417000e-02	4.012000e-02	-3.663000e-02	0.000000e+00	0.000000e+00	0.000000e+00
S	-1.712230	-2.685720	-4.258390	1.266100e-01	-5.527000e-02	3.023000e-02	0.000000e+00	0.000000e+00	0.000000e+00
S	0.106860	4.714660	-2.199580	9.220000e-03	4.385000e-02	-7.734000e-02	0.000000e+00	0.000000e+00	0.000000e+00
S	-0.285170	0.925400	4.443180	-9.820000e-03	-3.273000e-02	6.954000e-02	0.000000e+00	0.000000e+00	0.000000e+00
S	-0.654870	-4.967690	-1.550570	1.970000e-02	1.666500e-01	-1.532200e-01	0.000000e+00	0.000000e+00	0.000000e+00
S	1.754760	-0.170500	-0.180640	-3.901000e-02	4.242000e-02	-6.349000e-02	0.000000e+00	0.000000e+00	0.000000e+00
S	1.218230	-4.591360	-0.860160	3.920000e-02	3.479000e-02	2.753000e-02	0.000000e+00	0.000000e+00	0.000000e+00
S	-1.528840	-3.153780	1.091060	2.543000e-02	4.615000e-02	-3.433000e-02	0.000000e+00	0.000000e+00	0.000000e+00
S	2.404380	-2.977870	4.209140	3.695000e-02	3.063000e-02	-4.855000e-02	0.000000e+00	0.000000e+00	0.000000e+00
S	0.324410	-4.123560	-2.395030	7.548000e-02	3.722000e-02	-8.125000e-02	0.000000e+00	0.000000e+00	0.000000e+00
S	-3.887240	-1.383990	0.766910	1.864000e-02	3.331000e-02	-4.224000e-02	0.000000e+00	0.000000e+00	0.000000e+00
S	2.757670	-2.116210	-1.703580	-6.205000e-02	9.687000e-02	-9.928000e-02	0.000000e+00	0.000000e+00	0.000000e+00
S	3.273910	-1.685210	-3.117990	-1.270000e-02	9.173000e-02	8.379000e-02	0.000000e+00	0.000000e+00	0.000000e+00
S	2.648710	1.990750	-3.788570	3.716000e-02	-2.323000e-02	5.485000e-02	0.000000e+00	0.000000e+00	0.000000e+00
S	4.430510	4.162730	3.619170	-5.929000e-02	5.873000e-02	1.096100e-01	0.000000e+00	0.000000e+00	0.000000e+00
S	-2.027120	4.049320	4.096430	7.480000e-02	-1.003700e-01	1.524000e-02	0.000000e+00	0.000000e+00	0.000000e+00
S	-3.372430	-2.260890	3.645790	-1.520000e-03	-7.270000e-03	6.979000e-02	0.000000e+00	0.000000e+00	0.000000e+00
S	-0.040230	-2.089470	-3.195790	3.684000e-02	4.551000e-02	-7.219000e-02	0.000000e+00	0.000000e+00	0.000000e+00
S	1.031090	-0.075780	3.381340	4.485000e-02	-6.436000e-02	-5.561000e-02	0.000000e+00	0.000000e+00	0.000000e+00
S	-0.014750	-3.787410	-3.617620	-2.791000e-02	-3.504000e-02	8.638000e-02	0.000000e+00	0.000000e+00	0.000000e+00
S	4.084850	1.220950	3.368280	6.363000e-02	-7.900000e-04	-3.301000e-02	0.000000e+00	0.000000e+00	0.000000e+00
S	-1.056730	1.588310	1.088830	-4.822000e-02	-6.975000e-02	-8.549000e-02	0.000000e+00	0.000000e+00	0.000000e+00
S	-3.921520	1.472070	-1.364020	-4.235000e-02	-3.372000e-02	-8.177000e-02	0.000000e+00	0.000000e+00	0.000000e+00
S	-0.726720	4.344950	0.835700	-4.691000e-02	3.175000e-02	5.236000e-02	0.000000e+00	0.000000e+00	0.000000e+00
S	-0.125730	-3.427280	3.830370	2.513000e-02	3.540000e-03	-5.843000e-02	0.000000e+00	0.000000e+00	0.000000e+00
S	0.575610	-0.738010	3.299390	-2.112000e-02	-5.113000e-02	-3.480000e-02	0.000000e+00	0.000000e+00	0.000000e+00
S	2.293600	1.386540	4.848450	-3.235000e-02	7.951000e-02	-7.279000e-02	0.000000e+00	0.000000e+00	0.000000e+00
S	-0.892120	-4.945910	2.832820	5.488000e-02	-4.126000e-02	-7.707000e-02	0.000000e+00	0.000000e+00	0.000000e+00
S	3.655350	2.210060	-4.508380	-1.018000e-02	9.729000e-02	4.158000e-02	0.000000e+00	0.000000e+00	0.000000e+00
S	-2.891170	-0.261060	3.651810	-8.122000e-02	-8.009000e-02	-2.342000e-02	0.000000e+00	0.000000e+00	0.000000e+00
S	-1.982370	1.571200	3.090950	-7.366000e-02	-8.970000e-02	-8.932000e-02	0.000000e+00	0.000000e+00	0.000000e+00
S	-0.422840	2.808680	1.920760	-1.149000e-02	-7.618000e-02	1.793000e-02	0.000000e+00	0.000000e+00	0.000000e+00
S	0.786350	0.298990	0.950450	-2.762000e-02	-3.914000e-02	7.774000e-02	0.000000e+00	0.000000e+00	0.000000e+00
S	-0.234150	-3.301800	1.097290	5.150000e-03	2.379000e-02	1.924000e-02	0.000000e+00	0.000000e+00	0.000000e+00
S	-2.663440	3.298080	-4.299100	-8.023000e-02	1.847500e-01	-6.607000e-02	0.000000e+00	0.000000e+00	0.000000e+00
S	-0.182670	-2.745090	3.267690	-4.183000e-02	-2.856000e-02	7.566000e-02	0.000000e+00	0.000000e+00	0.000000e+00
S	-1.557490	3.149090	1.591460	-9.273000e-02	-4.851000e-02	5.565000e-02	0.000000e+00	0.000000e+00	0.000000e+00
S	1.259640	3.361040	-1.918430	-5.580000e-02	-6.040000e-02	2.249000e-02	0.000000e+00	0.000000e+00	0.000000e+00
S	-3.902670	1.746050	2.822620	4.389000e-02	-5.993000e-02	-1.976000e-02	0.000000e+00	0.000000e+00	0.000000e+00
S	-1.843420	-0.659910	-2.690040	-2.285000e-02	6.570000e-03	-6.906000e-02	0.000000e+00	0.000000e+00	0.000000e+00
S	0.553980	-4.854210	-1.197850	-1.235700e-01	-3.892000e-02	4.748000e-02	0.000000e+00	0.000000e+00	0.000000e+00
S	-2.395550	1.496590	0.523160	8.392000e-02	3.720000e-02	6.196000e-02	0.000000e+00	0.000000e+00	0.000000e+00
S	1.978480	-1.880500	1.458890	-9.880000e-02	6.590000e-03	6.878000e-02	0.000000e+00	0.000000e+00	0.000000e+00
S	1.484470	1.426930	0.185150	-1.986000e-02	-2.757000e-02	4.377000e-02	0.000000e+00	0.000000e+00	0.000000e+00
S	3.018970	1.778120	-3.471240	-9.342000e-02	-8.729000e-02	3.714000e-02	0.000000e+00	0.000000e+00	0.000000e+00
S	-3.123840	1.189580	2.003010	1.357000e-02	-9.977000e-02	-9.886000e-02	0.000000e+00	0.000000e+00	0.000000e+00
S	-1.947610	-2.384300	1.553680	7.151000e-02	-6.377000e-02	-3.173000e-02	0.000000e+00	0.000000e+00	0.000000e+00
S	1.673410	3.790090	1.533050	-3.735000e-02	7.700000e-02	-6.275000e-02	0.000000e+00	0.000000e+00	0.000000e+00
S	-3.428610	0.034610	3.289570	3.513000e-02	8.083000e-02	-6.178000e-02	0.000000e+00	0.000000e+00	0.000000e+00
S	-1.054790	2.060670	3.689240	9.480000e-03	4.779000e-02	8.650000e-02	0.000000e+00	0.000000e+00	0.000000e+00
S	-2.668810	4.265760	0.514430	8.668000e-02	-1.120000e-03	1.051000e-02	0.000000e+00	0.000000e+00	0.000000e+00
S	4.391290	2.996460	3.141390	1.890000e-02	3.144000e-02	9.906000e-02	0.000000e+00	0.000000e+00	0.000000e+00
S	4.358520	-1.754590	3.743090	1.783000e-02	2.755000e-02	5.186000e-02	0.000000e+00	0.000000e+00	0.000000e+00
S	2.754210	2.949100	-2.372150	2.088000e-02	-5.890000e-03	-6.661000e-02	0.000000e+00	0.000000e+00	0.000000e+00
S	2.954900	3.650860	3.730210	3.288000e-02	-1.750000e-02	2.240000e-02	0.000000e+00	0.000000e+00	0.000000e+00
S	0.968990	1.456010	0.385570	-7.033000e-02	1.580000e-02	-9.341000e-02	0.000000e+00	0.000000e+00	0.000000e+00
S	2.009100	0.181510	3.326090	3.010000e-03	-7.747000e-02	-2.040000e-03	0.000000e+00	0.000000e+00	0.000000e+00
S	0.103490	-4.515000	3.143510	-2.307000e-02	2.753000e-02	-9.580000e-03	0.000000e+00	0.000000e+00	0.000000e+00
S	-3.560180	-0.869220	-2.529670	-1.865000e-02	-9.651000e-02	4.352000e-02	0.000000e+00	0.000000e+00	0.000000e+00
S	0.737210	3.129470	0.826820	-1.065000e-02	-4.530000e-03	9.903000e-02	0.000000e+00	0.000000e+00	0.000000e+00
S	-4.412770	-4.257400	1.407660	1.946000e-02	-5.548000e-02	-5.604000e-02	0.000000e+00	0.000000e+00	0.000000e+00
S	1.302430	4.235130	2.379390	-7.430000e-03	-1.229000e-02	7.012000e-02	0.000000e+00	0.000000e+00	0.000000e+00
S	4.526620	4.489110	3.990860	5.340000e-02	-3.329000e-02	7.350000e-03	0.000000e+00	0.000000e+00	0.000000e+00
S	-1.808640	-0.224490	4.498200	-6.770000e-03	1.768600e-01	9.346000e-02	0.000000e+00	0.000000e+00	0.000000e+00
S	-3.162350	-0.419610	2.802240	5.329000e-02	8.096000e-02	-4.848000e-02	0.000000e+00	0.000000e+00	0.000000e+00
S	2.616120	4.635050	-1.681540	-1.952000e-02	1.121600e-01	1.108900e-01	0.000000e+00	0.000000e+00	0.000000e+00
S	1.221670	-3.089720	-0.220390	-2.798000e-02	3.078000e-02	8.330000e-02	0.000000e+00	0.000000e+00	0.000000e+00
S	-2.893080	1.065420	3.654340	-7.804000e-02	-2.529000e-02	-6.020000e-02	0.000000e+00	0.000000e+00	0.000000e+00
S	1.465200	0.926920	1.765540	1.927000e-02	-8.823000e-02	1.217000e-02	0.000000e+00	0.000000e+00	0.000000e+00
S	0.636170	-2.573740	-4.810890	-3.123000e-02	-9.819000e-02	8.474000e-02	0.000000e+00	0.000000e+00	0.000000e+00
S	1.014270	2.706860	3.871970	8.665000e-02	-6.539000e-02	-1.040000e-02	0.000000e+00	0.000000e+00	0.000000e+00
S	-0.122790	2.952310	1.390090	9.314000e-02	-6.893000e-02	-4.142000e-02	0.000000e+00	0.000000e+00	0.000000e+00
S	3.822040	-1.339720	3.994310	4.953000e-02	-4.840000e-03	-4.540000e-02	0.000000e+00	0.000000e+00	0.000000e+00
S	4.466400	-3.776740	3.656790	2.464000e-02	4.373000e-02	8.491000e-02	0.000000e+00	0.000000e+00	0.000000e+00
S	-3.159340	-2.177160	-3.328350	-5.940000e-02	2.523000e-02	-6.475000e-02	0.000000e+00	0.000000e+00	0.000000e+00
S	-3.733310	-2.724480	4.469250	-9.723000e-02	-6.784000e-02	-7.600000e-02	0.000000e+00	0.000000e+00	0.000000e+00
S	-0.381520	1.485450	4.152210	-7.983000e-02	2.285000e-02	-8.589000e-02	0.000000e+00	0.000000e+00	0.000000e+00
S	-1.062540	-0.035690	-0.634150	-4.136000e-02	-5.119000e-02	8.248000e-02	0.000000e+00	0.000000e+00	0.000000e+00
S	0.661640	-3.092910	-4.652840	-1.363000e-02	6.278000e-02	5.068000e-02	0.000000e+00	0.000000e+00	0.000000e+00
S	-1.436170	4.979700	-4.643340	4.710000e-03	-5.981000e-02	3.236000e-02	0.000000e+00	0.000000e+00	0.000000e+00
S	4.997870	-1.723840	3.893430	2.934000e-02	-3.170000e-02	-8.997000e-02	0.000000e+00	0.000000e+00	0.000000e+00
S	2.667010	3.033300	1.987130	3.638000e-02	8.084000e-02	-3.741000e-02	0.000000e+00	0.000000e+00	0.000000e+00
S	2.524790	-2.020670	3.093710	-6.219000e-02	1.822000e-02	-8.931000e-02	0.000000e+00	0.000000e+00	0.000000e+00
S	-3.985460	-3.427250	-2.558510	-7.277000e-02	1.782000e-02	-8.839000e-02	0.000000e+00	0.000000e+00	0.000000e+00
S	3.895530	4.455020	-4.439780	8.504000e-02	-6.190000e-03	-4.861000e-02	0.000000e+00	0.000000e+00	0.000000e+00
S	0.870110	-3.311630	0.845850	-4.730000e-03	6.311000e-02	8.521000e-02	0.000000e+00	0.000000e+00	0.000000e+00
S	0.265230	0.822500	2.293980	-5.495000e-02	-4.717000e-02	2.672000e-02	0.000000e+00	0.000000e+00	0.000000e+00
S	0.381750	-4.833490	4.315180	-3.049000e-02	-5.886000e-02	4.530000e-03	0.000000e+00	0.000000e+00	0.000000e+00
S	-0.990150	-1.928320	1.799040	2.903000e-02	-1.133000e-02	-4.620000e-02	0.000000e+00	0.000000e+00	0.000000e+00
S	2.031860	-1.671080	-2.854760	5.184000e-02	-4.838000e-02	3.671000e-02	0.000000e+00	0.000000e+00	0.000000e+00
S	-4.838230	3.451230	3.524110	2.015000e-02	-3.570000e-02	3.359000e-02	0.000000e+00	0.000000e+00	0.000000e+00
S	0.268300	3.480000	-2.497900	-4.875000e-02	-8.535000e-02	2.880000e-03	0.000000e+00	0.000000e+00	0.000000e+00
S	3.898130	1.114110	0.310330	6.427000e-02	9.179000e-02	4.735000e-02	0.000000e+00	0.000000e+00	0.000000e+00
S	-1.560410	-1.400580	-4.560850	-9.523000e-02	-9.898000e-02	-2.550000e-03	0.000000e+00	0.000000e+00	0.000000e+00
S	-2.071140	2.082620	3.201460	1.480000e-03	-6.510000e-03	-8.435000e-02	0.000000e+00	0.000000e+00	0.000000e+00
S	-3.090160	-0.163520	4.233810	-9.132000e-02	-8.312000e-02	-5.103000e-02	0.000000e+00	0.000000e+00	0.000000e+00
S	2.113550	1.112410	-4.071420	9.231000e-02	7.349000e-02	-6.678000e-02	0.000000e+00	0.000000e+00	0.000000e+00
S	-0.240530	2.572820	2.775050	-9.860000e-02	1.572000e-02	4.729000e-02	0.000000e+00	0.000000e+00	0.000000e+00
S	2.437270	4.225720	-4.035960	5.753000e-02	8.929000e-02	-7.970000e-02	0.000000e+00	0.000000e+00	0.000000e+00
S	-2.251030	-2.606790	3.097430	-8.099000e-02	4.935000e-02	-4.456000e-02	0.000000e+00	0.000000e+00	0.000000e+00
S	-3.266990	4.377140	2.608620	-8.066000e-02	9.622000e-02	6.905000e-02	0.000000e+00	0.000000e+00	0.000000e+00
S	-1.584600	1.924630	-0.434860	-1.312000e-02	3.081000e-02	-3.520000e-02	0.000000e+00	0.000000e+00	0.000000e+00
S	1.004920	-3.700240	-4.187350	-2.440000e-02	-7.261000e-02	3.198000e-02	0.000000e+00	0.000000e+00	0.000000e+00
S	-3.855410	3.806830	0.824500	-5.783000e-02	3.367000e-02	5.780000e-03	0.000000e+00	0.000000e+00	0.000000e+00
S	-1.876570	4.432220	2.682060	-7.558000e-02	-9.235000e-02	2.990000e-03	0.000000e+00	0.000000e+00	0.000000e+00
S	-1.007000	-2.884350	-0.473500	-6.797000e-02	-3.835000e-02	-1.325000e-02	0.000000e+00	0.000000e+00	0.000000e+00
S	-4.945650	1.497870	-3.737780	-7.610000e-03	-8.316000e-02	5.605000e-02	0.000000e+00	0.000000e+00	0.000000e+00
S	2.859320	1.846770	4.102270	7.344000e-02	-8.747000e-02	-9.056000e-02	0.000000e+00	0.000000e+00	0.000000e+00
S	0.270750	-3.228670	4.278660	-7.810000e-02	-2.240000e-02	1.924000e-02	0.000000e+00	0.000000e+00	0.000000e+00
S	-1.384090	2.003400	0.394130	-1.868000e-02	6.449000e-02	1.554000e-02	0.000000e+00	0.000000e+00	0.000000e+00
S	4.215510	-2.782740	2.892440	-2.516000e-02	-2.362000e-02	-8.050000e-02	0.000000e+00	0.000000e+00	0.000000e+00
S	3.079590	-1.126770	2.472770	8.684000e-02	6.985000e-02	6.629000e-02	0.000000e+00	0.000000e+00	0.000000e+00
S	2.144320	1.352040	0.161390	2.493000e-02	4.800000e-04	1.576000e-02	0.000000e+00	0.000000e+00	0.000000e+00
S	1.718410	-4.705240	2.559450	1.994000e-02	-7.220000e-02	-7.121000e-02	0.000000e+00	0.000000e+00	0.000000e+00
S	-3.041020	2.774100	3.442810	4.706000e-02	-6.319000e-02	3.334000e-02	0.000000e+00	0.000000e+00	0.000000e+00
S	-1.870100	-3.944240	3.884330	-7.955000e-02	-4.040000e-03	-4.594000e-02	0.000000e+00	0.000000e+00	0.000000e+00
S	-3.002760	-3.122640	1.576430	8.940000e-02	-5.562000e-02	1.380000e-03	0.000000e+00	0.000000e+00	0.000000e+00
S	2.784630	4.363490	-3.578810	-4.108000e-02	1.220000e-02	2.890000e-02	0.000000e+00	0.000000e+00	0.000000e+00
S	3.734140	-2.671520	1.739960	2.587000e-02	6.651000e-02	6.260000e-02	0.000000e+00	0.000000e+00	0.000000e+00
S	2.733010	-4.715470	0.904070	2.352000e-02	5.275000e-02	5.489000e-02	0.000000e+00	0.000000e+00	0.000000e+00
S	-2.157110	-4.232470	3.800090	-6.546000e-02	-6.420000e-02	-2.804000e-02	0.000000e+00	0.000000e+00	0.000000e+00
S	-0.569570	-1.212900	1.475220	-7.986000e-02	-3.486000e-02	7.389000e-02	0.000000e+00	0.000000e+00	0.000000e+00
S	1.076000	-3.958260	3.057890	4.994000e-02	-2.024000e-02	-2.664000e-02	0.000000e+00	0.000000e+00	0.000000e+00
S	-1.057610	-2.278110	0.996440	-8.635000e-02	8.031000e-02	-1.356000e-02	0.000000e+00	0.000000e+00	0.000000e+00
S	3.812320	1.748500	-0.393480	-5.670000e-03	-4.151000e-02	-5.512000e-02	0.000000e+00	0.000000e+00	0.000000e+00
S	-2.539290	0.767210	-1.988310	-7.478000e-02	4.989000e-02	-3.970000e-03	0.000000e+00	0.000000e+00	0.000000e+00
S	-0.141340	-3.075140	3.588660	-7.332000e-02	-4.137000e-02	-6.308000e-02	0.000000e+00	0.000000e+00	0.000000e+00
S	-4.971720	4.007720	-2.112480	6.172000e-02	3.010000e-02	3.751000e-02	0.000000e+00	0.000000e+00	0.000000e+00
S	-3.245870	-4.552710	4.597160	5.501000e-02	-7.741000e-02	7.225000e-02	0.000000e+00	0.000000e+00	0.000000e+00
S	-2.927430	4.941960	0.361150	3.358000e-02	-6.830000e-03	6.571000e-02	0.000000e+00	0.000000e+00	0.000000e+00
S	3.923240	2.119060	-0.947330	-6.130000e-02	6.760000e-02	-6.906000e-02	0.000000e+00	0.000000e+00	0.000000e+00
S	1.736480	-1.761480	-1.528040	6.500000e-03	-8.550000e-03	2.807000e-02	0.000000e+00	0.000000e+00	0.000000e+00
S	3.970550	3.441130	-2.645650	-1.657000e-02	4.789000e-02	-4.630000e-03	0.000000e+00	0.000000e+00	0.000000e+00
S	-4.075060	-0.365580	4.412430	7.615000e-02	2.802000e-02	-4.672000e-02	0.000000e+00	0.000000e+00	0.000000e+00
S	-2.852590	-2.219950	-0.515770	-8.350000e-03	-3.948000e-02	1.731000e-02	0.000000e+00	0.000000e+00	0.000000e+00
152
Lattice="10 0.0 0.0  0.0 10 0.0  0.0 0.0 10"	TIME: 1
B	-3.062651	-4.099861	-3.997311	9.339939e-01	5.356183e-04	1.002350e-02	-1.559782e+00	1.548291e-01	2.690957e+00
B	-4.220908	-3.985319	-2.000472	-2.086995e-01	4.763371e-02	-6.905222e-03	4.891223e+00	9.954070e+00	-2.596831e+00
B	-3.256811	-1.049529	-2.053994	7.959994e-01	8.041821e-01	2.409006e-01	8.320960e+00	-1.148369e+01	2.313033e+01
B	-2.319755	-2.004625	-1.997300	-2.959894e-01	-1.767679e-02	9.343674e-03	5.525028e+00	-4.703171e+00	2.174362e+00
B	-1.370589	-1.994288	-0.001766	6.259772e-01	1.269479e-02	-6.931509e-03	-1.441712e+00	1.759955e+00	-1.946818e+00
B	-1.994727	0.094044	-0.000107	1.601060e-02	-1.334459e-02	-2.219545e-04	3.265318e+00	-1.859317e+00	-2.416535e-02
B	0.287036	0.002433	0.000622	2.763785e-01	9.113610e-03	3.046363e-03	-3.307736e+00	2.448465e+00	1.151015e+00
B	-0.109877	1.997858	0.997526	-9.269548e-02	-8.400253e-03	9.895206e-01	5.550703e+00	-2.406797e+00	-3.394846e+00
B	2.236779	2.032612	-0.006283	2.203707e-01	5.651370e-02	-5.906657e-03	-4.997900e+00	2.678188e+00	1.926718e+00
B	1.818116	2.000028	2.000227	-1.482834e-01	7.876913e-05	1.252320e-04	9.969877e+00	1.600810e-02	-1.682767e-01
B	4.803683	1.999999	2.096704	7.692356e-01	-1.733094e-06	-2.782193e-03	-1.067236e+01	3.877313e-04	1.164383e+00
B	3.768859	2.000343	4.002829	-2.291781e-01	7.749025e-04	1.258335e-03	1.235357e+00	1.515996e-01	-1.466556e+00
S	-1.418422	0.562290	0.714388	-9.254715e-03	3.736311e-02	-7.974319e-02	2.458371e-02	-2.609347e-02	3.507259e-02
S	0.406491	2.588016	-1.881364	9.834503e-02	1.470524e-02	7.587848e-02	-2.258598e-02	-8.774788e-02	4.321494e-02
S	2.603563	1.352675	-4.503264	1.933646e-01	8.624610e-02	9.429729e-02	1.188022e+01	4.821241e+00	-1.106290e+01
S	3.781475	3.391054	4.891050	4.876912e-02	8.067320e-02	9.669254e-02	3.008072e-04	-1.977813e-03	-5.564983e-03
S	1.734796	0.050371	-3.444914	6.599116e-02	7.777028e-02	-8.458767e-02	-1.157731e-03	-2.761073e-03	1.607273e-03
S	1.440071	-2.483258	1.256984	-5.988549e-02	3.235074e-02	-3.929802e-02	-5.583203e-01	-7.764120e-01	-3.448012e-01
S	-1.585621	-2.741015	-4.228154	1.266088e-01	-5.532194e-02	3.024274e-02	3.186033e-04	-5.914711e-03	1.618245e-03
S	0.116259	4.758340	-2.277151	9.588815e-03	4.349516e-02	-7.779566e-02	3.905381e-02	-3.920756e-02	-4.254562e-02
S	-0.289486	0.864088	4.528798	-1.996810e-03	-7.196337e-02	9.217266e-02	1.362406e-01	-5.171743e-01	3.679702e-01
S	-0.635441	-4.800939	-1.703622	1.914551e-02	1.668692e-01	-1.528936e-01	-5.804890e-02	2.690456e-02	2.914399e-02
S	1.715754	-0.128086	-0.244134	-3.900076e-02	4.240729e-02	-6.349806e-02	1.729342e-03	-1.440635e-03	-9.562851e-04
S	1.260553	-4.555326	-0.831146	4.392644e-02	3.667748e-02	2.971459e-02	1.446959e-01	5.871607e-02	5.582312e-02
S	-1.503317	-3.108772	1.056363	2.578532e-02	4.353399e-02	-3.528247e-02	9.829519e-02	-3.779108e-01	-1.767026e-01
S	2.441330	-2.947244	4.160595	3.694991e-02	3.062170e-02	-4.853984e-02	1.233700e-05	-7.612981e-04	9.648974e-04
S	0.399917	-4.086278	-2.476264	7.554518e-02	3.733666e-02	-8.119854e-02	1.030501e-02	9.388855e-03	1.196848e-02
S	-3.868601	-1.350680	0.724670	1.863900e-02	3.331076e-02	-4.223929e-02	-9.466008e-05	7.494880e-05	7.477271e-05
S	2.695849	-2.019417	-1.802890	-6.153266e-02	9.670312e-02	-9.935147e-02	7.091937e-02	-2.066149e-02	-1.016651e-02
S	3.261256	-1.593477	-3.034214	-1.259775e-02	9.173877e-02	8.375940e-02	1.356610e-02	1.984249e-03	-4.170274e-03
S	2.533356	2.063850	-3.869774	-1.456873e-01	9.451728e-02	-1.089645e-01	-1.279477e-01	3.513124e-01	-2.046360e-02
S	4.300667	4.015088	3.493289	-1.411729e-01	-1.766890e-01	-1.593639e-01	-6.611091e-02	6.245098e-02	-2.936008e-02
S	-1.952319	3.948946	4.111676	7.480224e-02	-1.003790e-01	1.525276e-02	5.892597e-04	-1.009164e-03	1.341599e-03
S	-3.373765	-2.267894	3.715184	-1.095554e-03	-6.681161e-03	6.895905e-02	5.875022e-02	7.534942e-02	-9.178227e-02
S	-0.003390	-2.043958	-3.267978	3.683911e-02	4.551322e-02	-7.218673e-02	-1.106095e-04	3.285216e-04	4.070905e-04
S	1.078111	-0.136574	3.326175	4.878292e-02	-5.784497e-02	-5.482412e-02	2.626196e-01	4.685059e-01	4.852084e-02
S	-0.042748	-3.822452	-3.531228	-2.808900e-02	-3.503960e-02	8.638706e-02	-1.992202e-02	1.606482e-03	-5.573165e-03
S	4.148544	1.219872	3.335040	6.376556e-02	-1.286019e-03	-3.340845e-02	1.350125e-02	-2.708727e-02	-2.257295e-02
S	-1.104041	1.517398	1.005228	-4.642511e-02	-7.221495e-02	-8.171166e-02	1.641331e-01	-2.739888e-01	3.578815e-01
S	-3.963872	1.438351	-1.445789	-4.235393e-02	-3.371807e-02	-8.176833e-02	-5.341321e-04	2.503774e-04	2.185598e-04
S	-0.773630	4.376704	0.888058	-4.690950e-02	3.175649e-02	5.235668e-02	9.222328e-05	4.700301e-04	-2.448651e-04
S	-0.097401	-4.130768	4.199041	2.005077e-02	-7.591128e-01	3.875679e-01	-2.234151e-01	1.740047e-01	-3.886961e-02
S	0.551815	-0.792841	3.264166	-2.615776e-02	-5.793839e-02	-3.555084e-02	-4.056614e-01	-5.057572e-01	-4.763449e-02
S	2.221853	1.485784	4.670450	-7.969092e-02	1.027758e-01	-1.977556e-01	-1.692683e-01	1.241309e-02	-1.713676e-01
S	-0.837311	-4.987197	2.755713	5.471698e-02	-4.132998e-02	-7.715241e-02	-2.132456e-02	-1.136153e-02	-1.051099e-02
S	3.645215	2.307346	-4.466816	-1.009632e-02	9.727655e-02	4.155814e-02	6.899189e-03	-2.687325e-03	6.694065e-04
S	-2.935592	-0.361056	3.573628	-2.103286e-02	-1.140898e-01	-1.056228e-01	2.260128e+00	-1.640882e+00	-1.248164e+00
S	-2.030278	1.313577	2.965783	-4.385436e-02	-2.875782e-01	-1.315210e-01	2.720160e-02	-1.654973e-01	-4.428838e-02
S	-0.456241	2.723089	1.973657	-4.268375e-02	-8.902766e-02	6.543483e-02	-5.707975e-01	-1.182235e-01	3.029246e-01
S	0.758723	0.259811	1.028207	-2.763068e-02	-3.921111e-02	7.778778e-02	-7.521714e-04	-5.453279e-03	9.133693e-03
S	-0.229094	-3.278030	1.116560	4.950236e-03	2.375119e-02	1.929921e-02	-2.344258e-02	-3.742171e-03	5.696818e-03
S	-2.743670	3.482830	-4.365169	-8.023076e-02	1.847492e-01	-6.606861e-02	-1.130530e-04	-1.102258e-04	1.820423e-04
S	-0.298742	-2.174589	2.767427	-1.245049e-01	6.379679e-01	-5.652379e-01	4.513271e-03	4.844903e-03	1.467650e-03
S	-1.650265	3.100593	1.647101	-9.281174e-02	-4.848661e-02	5.563336e-02	-5.887970e-03	1.803020e-03	-1.295707e-03
S	1.203992	3.300687	-1.895886	-5.545088e-02	-6.026573e-02	2.259637e-02	5.252818e-02	3.004377e-02	9.919974e-03
S	-3.858811	1.686136	2.802874	4.382939e-02	-5.989794e-02	-1.973676e-02	-5.391712e-03	3.355926e-03	1.053115e-03
S	-1.866268	-0.653337	-2.759102	-2.284484e-02	6.576175e-03	-6.906450e-02	8.572167e-04	5.198701e-04	-5.099641e-04
S	0.427359	-4.894352	-1.151765	-1.281515e-01	-4.077096e-02	4.547305e-02	-1.301663e-01	-5.710855e-02	-3.839053e-02
S	-2.311800	1.533725	0.585149	8.353944e-02	3.705179e-02	6.202235e-02	-5.191104e-02	-2.111643e-02	8.003020e-03
S	1.882642	-1.869919	1.528944	-9.276711e-02	1.477653e-02	7.164994e-02	6.086199e-01	8.439172e-01	3.735658e-01
S	1.560895	1.391893	0.181133	6.437370e-02	-3.415800e-02	-1.467113e-02	-8.324626e+00	8.110714e-01	-1.495941e-01
S	3.078240	1.594992	-3.297668	8.979354e-02	-2.037675e-01	2.018830e-01	1.567183e-01	-1.276075e-01	1.675539e-01
S	-3.110253	1.089795	1.904124	1.360025e-02	-9.979711e-02	-9.891030e-02	1.909728e-03	-2.053329e-03	-4.425832e-03
S	-1.876977	-2.447568	1.522559	6.942050e-02	-6.255484e-02	-3.016889e-02	-3.267814e-01	1.966436e-01	2.813719e-01
S	1.636167	3.866990	1.470046	-3.715768e-02	7.683481e-02	-6.320561e-02	1.338494e-02	-7.116490e-03	-3.092686e-02
S	-3.413364	0.135522	3.229999	2.358643e-05	1.179430e-01	-5.703272e-02	-2.008594e+00	2.497965e+00	5.554373e-01
S	-1.045833	2.109031	3.775445	7.936225e-03	4.938301e-02	8.569338e-02	-3.481078e-01	3.469457e-01	-1.572659e-01
S	-2.577412	4.253124	0.527261	9.569564e-02	-2.250657e-02	1.456913e-02	7.278162e-01	-1.567637e+00	2.317665e-01
S	4.409522	3.027457	3.240102	1.740966e-02	3.038556e-02	9.828700e-02	-1.960609e-01	-1.745208e-01	-1.040702e-01
S	4.351620	-1.743157	3.779310	-1.354945e-02	-8.901707e-03	2.290974e-02	2.169672e+00	-4.789557e+00	-2.243648e+00
S	2.775072	2.943203	-2.438754	2.084290e-02	-5.904515e-03	-6.659735e-02	-4.172921e-03	-1.686618e-03	1.236725e-03
S	2.987764	3.633363	3.752600	3.284628e-02	-1.749514e-02	2.238107e-02	-4.257584e-03	5.968496e-05	-1.205165e-03
S	0.752555	1.481827	0.342166	-2.561660e-01	2.900422e-02	-3.158860e-02	-7.578379e-01	8.193965e-02	1.440355e-01
S	2.012615	0.104172	3.324032	4.117955e-03	-7.718099e-02	-2.068806e-03	1.434304e-01	3.698683e-02	-1.649765e-04
S	0.080438	-4.487508	3.133894	-2.300836e-02	2.745912e-02	-9.686667e-03	1.193399e-02	-2.357913e-04	-1.681487e-02
S	-3.593574	-0.929278	-2.532366	-1.172606e-01	6.402640e-02	-1.980358e-01	-1.634744e+01	5.837875e+00	-2.322040e+01
S	0.727112	3.125079	0.925501	-8.969687e-03	-4.066644e-03	9.803090e-02	4.286622e-01	1.348404e-01	-2.296655e-01
S	-4.393311	-4.312880	1.351620	1.945835e-02	-5.547995e-02	-5.603989e-02	-1.695625e-04	4.104799e-05	1.780089e-05
S	1.294846	4.222843	2.449753	-7.724462e-03	-1.234348e-02	7.055929e-02	-2.626404e-02	-2.211723e-02	3.102645e-02
S	4.650330	4.662506	4.233749	1.348107e-01	2.028116e-01	2.764221e-01	2.148637e-02	3.979292e-02	4.331457e-02
S	-1.815384	-0.047627	4.591669	-6.725785e-03	1.768659e-01	9.347603e-02	2.223608e-03	4.896296e-04	9.268253e-04
S	-3.102817	-0.350047	2.740104	6.474249e-02	6.015765e-02	-7.411668e-02	7.674969e-01	-1.376332e+00	-1.981053e+00
S	2.596601	4.747210	-1.570650	-1.951781e-02	1.121605e-01	1.108902e-01	2.865213e-04	-4.533267e-05	-4.667346e-05
S	1.193725	-3.058917	-0.137202	-2.790933e-02	3.082444e-02	8.307153e-02	7.175614e-03	4.194005e-03	-2.442978e-02
S	-2.971143	1.040197	3.594217	-7.806609e-02	-2.510883e-02	-6.001819e-02	6.393633e-03	3.707869e-02	2.825772e-02
S	1.484500	0.838668	1.777732	1.933552e-02	-8.827211e-02	1.221909e-02	8.449783e-03	-2.854699e-03	6.461884e-03
S	0.591559	-2.437888	-4.798453	-4.837914e-02	1.952899e-01	-6.107027e-03	-3.430753e-02	4.633358e-01	-1.400996e-01
S	1.100921	2.641471	3.861571	8.665177e-02	-6.538874e-02	-1.039844e-02	5.914602e-05	1.557216e-04	7.627128e-05
S	-0.008552	2.893061	1.312440	1.221268e-01	-5.554220e-02	-9.136075e-02	9.783664e-02	2.147797e-01	-4.727558e-01
S	3.852285	-1.329473	3.956973	5.006466e-03	3.048014e-02	-2.764461e-02	-5.857749e+00	4.850764e+00	2.083701e+00
S	4.491046	-3.733030	3.741717	2.465052e-02	4.369351e-02	8.494251e-02	7.883934e-04	-2.400775e-03	2.508938e-03
S	-3.218737	-2.151934	-3.393109	-5.939567e-02	2.522265e-02	-6.476576e-02	7.474419e-05	-5.823587e-04	-1.044695e-03
S	-3.830750	-2.792579	4.393661	-9.770532e-02	-6.841579e-02	-7.513649e-02	-6.406500e-02	-7.418011e-02	9.579738e-02
S	-0.466231	1.536311	4.050620	-8.594942e-02	6.048066e-02	-1.075642e-01	2.180070e-01	1.668946e-01	-1.992019e-01
S	-1.103795	-0.086904	-0.551770	-4.110039e-02	-5.124819e-02	8.226441e-02	4.189110e-02	-9.432835e-03	-2.821855e-02
S	0.659317	-3.260371	-4.532481	-2.848523e-03	-2.195884e-01	1.336822e-01	-1.682389e+00	2.301557e+00	-1.871496e+00
S	-1.431459	4.919891	-4.610978	4.711722e-03	-5.980882e-02	3.236357e-02	1.717824e-04	1.265479e-04	2.985364e-04
S	5.071226	-1.754496	3.811050	1.052449e-01	-3.054377e-02	-7.875163e-02	3.688020e+00	-5.936151e-02	1.618116e-01
S	2.703422	3.114155	1.949725	3.643456e-02	8.086092e-02	-3.740049e-02	3.363154e-03	9.383472e-05	7.201389e-04
S	2.462575	-2.002483	3.004419	-6.223799e-02	1.815866e-02	-8.927528e-02	-4.105596e-03	-4.795777e-03	2.337196e-03
S	-4.057954	-3.406544	-2.649814	-7.215053e-02	2.263148e-02	-9.333494e-02	7.036380e-02	2.506080e-01	-2.811407e-01
S	3.980582	4.448849	-4.488382	8.506316e-02	-6.143912e-03	-4.858602e-02	1.990020e-03	7.730870e-03	5.370128e-03
S	0.865346	-3.248713	0.931054	-4.840319e-03	6.265460e-02	8.517775e-02	-2.651569e-02	-7.047330e-02	-1.013912e-02
S	0.210258	0.775331	2.320710	-5.499005e-02	-4.716668e-02	2.674006e-02	-3.194413e-03	4.363921e-04	1.815012e-03
S	0.351295	-4.892418	4.319761	-3.026495e-02	-5.927757e-02	4.680725e-03	1.777293e-01	-3.019855e-01	5.360491e-02
S	-0.961921	-1.941072	1.756239	2.704294e-02	-1.550783e-02	-3.858086e-02	-3.341296e-01	-9.151979e-01	1.000807e+00
S	2.083651	-1.719456	-2.818072	5.172534e-02	-4.837071e-02	3.665533e-02	-1.730797e-02	1.378800e-03	-9.934195e-03
S	-4.817153	3.415678	3.557989	2.214825e-02	-3.529275e-02	3.424082e-02	2.455261e-01	7.523529e-02	8.685793e-02
S	0.219438	3.394892	-2.495245	-4.899276e-02	-8.484419e-02	2.407061e-03	-2.996511e-02	5.482278e-02	-5.350575e-02
S	3.962507	1.205339	0.358383	6.451322e-02	9.068897e-02	4.881923e-02	3.354826e-02	-1.021002e-01	1.646974e-01
S	-1.655638	-1.499538	-4.563404	-9.522764e-02	-9.893278e-02	-2.560395e-03	-2.838050e-04	5.692478e-03	-1.510911e-03
S	-2.095374	2.244011	3.152827	-2.815151e-02	1.912997e-01	-4.241295e-02	2.263490e-02	1.486876e-01	1.320805e-02
S	-3.203696	-0.235362	4.248756	-1.246779e-01	-6.519367e-02	5.138199e-02	-5.666217e-02	6.008590e-01	2.508235e+00
S	2.168905	1.168595	-4.090525	-5.094137e-03	2.905581e-02	4.863670e-02	-1.181192e+01	-5.083992e+00	1.115039e+01
S	-0.338817	2.588166	2.823964	-9.796427e-02	1.498010e-02	5.083509e-02	6.705870e-02	-7.006632e-02	4.543674e-01
S	2.443401	4.295788	-4.190596	-1.134092e-02	6.399404e-02	-1.829823e-01	-4.866006e-01	-1.369738e-01	-9.888526e-01
S	-2.331995	-2.557445	3.052857	-8.093862e-02	4.933962e-02	-4.458800e-02	5.490685e-03	-1.230193e-03	-3.463881e-03
S	-3.347664	4.473360	2.677669	-8.068921e-02	9.621742e-02	6.904371e-02	-4.644645e-03	-2.300610e-03	-3.542820e-03